      54
 i =        0, time =        0.000, E =      -376.2283053279
  C        13.9382650000       18.7254350000       17.5001700000
  N        13.9371850000       17.2540750000       17.4995700000
  N        12.7530050000       19.3394950000       17.5004200000
  C        12.7330850000       20.6694150000       17.5010400000
  C        11.6532350000       22.6861850000       17.5000300000
  C        13.9393150000       22.7580450000       17.5003500000
  N        10.3789950000       23.4209450000       17.4998700000
  N        11.5917950000       21.3526850000       17.5004400000
  N        12.7775750000       23.4057850000       17.4993300000
  N        13.9392250000       21.3655250000       17.5020300000
  N        17.4994050000       11.0869450000       17.4989900000
  C        17.4986450000       12.5581250000       17.4993000000
  C        16.2918250000       14.5014650000       17.5006200000
  C        15.2109050000       16.5176850000       17.4995400000
  C        18.7039350000       14.5023750000       17.5002300000
  C        17.4974750000       16.5909550000       17.4994200000
  C        19.7834050000       16.5192950000       17.4997000000
  N        19.8449750000       15.1857650000       17.5007600000
  N        18.6590650000       17.2389850000       17.4979700000
  N        15.1240850000       19.3388750000       17.5004900000
  N        16.3348950000       17.2377050000       17.4985700000
  N        17.4976150000       15.1982650000       17.5012600000
  N        18.6839850000       13.1722350000       17.4984600000
  N        16.3128650000       13.1714050000       17.5004800000
  N        15.1499050000       15.1841550000       17.5000800000
  C        21.0592550000       18.7249750000       17.5002600000
  N        19.8739450000       19.3389150000       17.5009400000
  N        21.0579350000       17.2538450000       17.4998300000
  N        22.2450250000       19.3383250000       17.5000600000
  C        15.1452150000       20.6689450000       17.5013600000
  C        16.2257850000       22.6851750000       17.5004200000
  C        19.8537450000       20.6691350000       17.5011300000
  C        18.7739350000       22.6858450000       17.5005100000
  C        22.2661050000       20.6684650000       17.5012800000
  C        21.0603350000       22.7577450000       17.5009000000
  C        23.3467250000       22.6847650000       17.5009200000
  N        15.1015950000       23.4050450000       17.4992300000
  N        16.2868650000       21.3516950000       17.5013200000
  N        17.4995750000       23.4212450000       17.5002800000
  N        19.8983050000       23.4055550000       17.5005700000
  N        22.2226350000       23.4044550000       17.4999300000
  N        23.4079150000       21.3509550000       17.5017000000
  N        21.0600950000       21.3649950000       17.5019000000
  N        18.7125150000       21.3523050000       17.5004100000
  N        24.6205050000       23.4209850000       17.5008600000
  H        10.3784650000       24.4054450000       17.4995700000
  H         9.5266650000       22.9282350000       17.5000600000
  H        18.3522650000       10.5951350000       17.4981300000
  H        16.6470550000       10.5942550000       17.4996400000
  H        24.6200350000       24.4054850000       17.5003000000
  H        25.4733350000       22.9291350000       17.5013800000
  H        13.0842550000       16.7623950000       17.4991900000
  H        21.9101250000       16.7608850000       17.4996300000
  H        17.4992850000       24.4057450000       17.5000300000
      54
 i =        1, time =        1.000, E =      -376.2377076918
  C        13.9458733006       18.7205761272       17.4986488854
  N        13.9412848200       17.2531079188       17.4972426025
  N        12.7513318607       19.3362160482       17.4959065794
  C        12.7424858215       20.6626662583       17.5041089532
  C        11.6612199091       22.6832489623       17.5010664624
  C        13.9424640430       22.7548902866       17.5064484235
  N        10.3808423071       23.4170684094       17.5032799374
  N        11.5853177297       21.3475312721       17.4969330532
  N        12.7729401901       23.4102184279       17.4950726145
  N        13.9386302873       21.3741917896       17.4989728231
  N        17.4978982993       11.0957318352       17.4958441657
  C        17.5023628090       12.5554796062       17.5048284948
  C        16.2921265916       14.5030095404       17.4948232565
  C        15.2076376325       16.5169128606       17.5035165546
  C        18.7037181064       14.5104932459       17.5001818765
  C        17.5068361481       16.5938245198       17.5005621941
  C        19.7836371987       16.5128332766       17.5046279282
  N        19.8443492460       15.1874395789       17.5021087603
  N        18.6617856504       17.2389859287       17.4968135206
  N        15.1215165400       19.3427655655       17.5023144523
  N        16.3377852294       17.2370952490       17.5071919959
  N        17.4930614946       15.1982577890       17.4991543553
  N        18.6909001257       13.1720892174       17.4957497938
  N        16.3009199453       13.1700436167       17.5008776186
  N        15.1451808610       15.1874868455       17.4970768983
  C        21.0662996941       18.7291562255       17.5060431449
  N        19.8765236943       19.3324206647       17.5027256518
  N        21.0582974244       17.2548943057       17.4996642088
  N        22.2384167184       19.3369329503       17.5023835401
  C        15.1396957821       20.6690253916       17.4992935465
  C        16.2260974480       22.6911634041       17.5044312878
  C        19.8507648039       20.6717913170       17.5055430234
  C        18.7832921659       22.6911442818       17.5058120176
  C        22.2681632468       20.6640690107       17.4976063277
  C        21.0694880490       22.7611266708       17.4975015838
  C        23.3421982534       22.6801806754       17.5013772408
  N        15.0946596341       23.4089673063       17.4969473787
  N        16.2850516996       21.3592848067       17.5032788903
  N        17.4999621968       23.4182116179       17.4997700215
  N        19.8920328010       23.4056771868       17.5008364231
  N        22.2237390767       23.4053180505       17.4927301118
  N        23.4063422130       21.3461301081       17.4989760953
  N        21.0580473036       21.3629383228       17.4998166960
  N        18.7140338118       21.3495124188       17.4996730340
  N        24.6121823830       23.4129117149       17.5001894914
  H        10.3757696572       24.4044193207       17.4839546556
  H         9.5313282134       22.9279722340       17.4672794923
  H        18.3670865627       10.6162830769       17.4980659028
  H        16.6161457058       10.5877732002       17.4936061345
  H        24.6295993604       24.4047816676       17.5054954365
  H        25.4885343741       22.9238281134       17.5006117868
  H        13.0959657845       16.7422177840       17.5175803242
  H        21.9260598962       16.7905901997       17.5157925490
  H        17.5008193225       24.4157478425       17.5036012150
      54
 i =        2, time =        2.000, E =      -376.2356340460
  C        13.9533978041       18.7148650980       17.4971220444
  N        13.9481910931       17.2537118974       17.4948954547
  N        12.7493667143       19.3320374163       17.4913649152
  C        12.7509953483       20.6562573314       17.5071156878
  C        11.6670042282       22.6812913306       17.5020518779
  C        13.9450539211       22.7523982299       17.5124902182
  N        10.3858169019       23.4116076536       17.5068038321
  N        11.5785209555       21.3419040529       17.4934362069
  N        12.7685456128       23.4153068034       17.4908330186
  N        13.9379833324       21.3825989953       17.4959418962
  N        17.4957393130       11.1073625233       17.4927002525
  C        17.5057993284       12.5509509011       17.5103018721
  C        16.2920062189       14.5041773255       17.4890296400
  C        15.2040488170       16.5169317933       17.5075004894
  C        18.7035145715       14.5179230669       17.5001200669
  C        17.5157237762       16.5969117055       17.5017260138
  C        19.7846588078       16.5073768585       17.5095433007
  N        19.8446697138       15.1888842711       17.5034971759
  N        18.6645862328       17.2388567808       17.4956700698
  N        15.1189832736       19.3467925614       17.5041413983
  N        16.3408264265       17.2363372614       17.5159071749
  N        17.4887201060       15.1981968143       17.4970148421
  N        18.6983345292       13.1716540243       17.4930464732
  N        16.2886319181       13.1682321624       17.5012894085
  N        15.1395998111       15.1905938732       17.4940296836
  C        21.0725041307       18.7322055386       17.5118352316
  N        19.8791543690       19.3263115050       17.5045644378
  N        21.0558896085       17.2576323062       17.4995110688
  N        22.2327425335       19.3349453322       17.5047358777
  C        15.1346081013       20.6693244037       17.4972359231
  C        16.2271661613       22.6973858407       17.5084295505
  C        19.8476722424       20.6739742544       17.5099448201
  C        18.7913400293       22.6962364801       17.5110936783
  C        22.2703252004       20.6596562058       17.4939312888
  C        21.0783083365       22.7646609168       17.4940704873
  C        23.3397346109       22.6765809636       17.5017729465
  N        15.0882625624       23.4137948929       17.4946915776
  N        16.2829261804       21.3667522314       17.5052678271
  N        17.5003932606       23.4124136796       17.4992842733
  N        19.8859575951       23.4067604497       17.5011203306
  N        22.2249363630       23.4070073897       17.4854763640
  N        23.4054981260       21.3410433350       17.4962313927
  N        21.0562671652       21.3611013783       17.4977202642
  N        18.7156681318       21.3468899403       17.4989712870
  N        24.6014919430       23.4030012502       17.4995133482
  H        10.3755474578       24.4159847526       17.4677703117
  H         9.5233652081       22.9173577514       17.4335140937
  H        18.3914211387       10.6334703561       17.4980514670
  H        16.5855748443       10.5835833436       17.4875805418
  H        24.6360331713       24.4146580096       17.5108012282
  H        25.5064963239       22.9131437924       17.4998918194
  H        13.0948258888       16.7154602811       17.5363321546
  H        21.9557462493       16.8113243958       17.5323482123
  H        17.5023112843       24.4354792782       17.5072645600
      54
 i =        3, time =        3.000, E =      -376.2323658660
  C        13.9600175955       18.7087777428       17.4956866356
  N        13.9567511778       17.2553859118       17.4926956381
  N        12.7474989623       19.3271195550       17.4870808856
  C        12.7575824506       20.6508679164       17.5097932567
  C        11.6700440171       22.6802715513       17.5028686454
  C        13.9465954705       22.7511028154       17.5180107792
  N        10.3930099243       23.4052759365       17.5102525657
  N        11.5721969873       21.3360821369       17.4901989624
  N        12.7649386469       23.4205927082       17.4869160525
  N        13.9373571802       21.3898529621       17.4931716359
  N        17.4929911103       11.1202268327       17.4897654743
  C        17.5084931902       12.5452907208       17.5152924274
  C        16.2912290268       14.5048203629       17.4836381233
  C        15.2007054000       16.5177999061       17.5112254464
  C        18.7032292871       14.5238351500       17.5000357433
  C        17.5231260075       16.5999649454       17.5028552904
  C        19.7864947581       16.5035765459       17.5141018104
  N        19.8459123435       15.1899097403       17.5048681543
  N        18.6674474145       17.2386077738       17.4946289140
  N        15.1167500728       19.3506689426       17.5058461922
  N        16.3438399979       17.2354732459       17.5242092701
  N        17.4850688955       15.1981226283       17.4949566866
  N        18.7056623655       13.1710798058       17.4905411600
  N        16.2770943842       13.1661029419       17.5017004510
  N        15.1336131987       15.1931971856       17.4911033478
  C        21.0769187852       18.7337298034       17.5172480083
  N        19.8816420849       19.3211917335       17.5063822159
  N        21.0516954592       17.2615091518       17.4994141766
  N        22.2287288470       19.3326424104       17.5069817376
  C        15.1304803155       20.6701271869       17.4953355204
  C        16.2287504042       22.7034203999       17.5121285104
  C        19.8447914260       20.6752501088       17.5140268738
  C        18.7971731948       22.7003782790       17.5159753199
  C        22.2722388723       20.6555075134       17.4905055120
  C        21.0857445701       22.7679847760       17.4908120628
  C        23.3395110588       22.6740421848       17.5020217934
  N        15.0830135681       23.4192179084       17.4926448200
  N        16.2805208613       21.3735008122       17.5071776847
  N        17.5008722779       23.4052482345       17.4988840165
  N        19.8809869909       23.4088350375       17.5014150381
  N        22.2261995491       23.4094413811       17.4786079342
  N        23.4054558208       21.3360866582       17.4936345610
  N        21.0550246935       21.3597340725       17.4957430403
  N        18.7172428547       21.3447730713       17.4983873308
  N        24.5899527332       23.3922616981       17.4988803572
  H        10.3779304402       24.4309009406       17.4518861717
  H         9.5103384426       22.9009932825       17.4006683389
  H        18.4149725244       10.6491101535       17.4980756919
  H        16.5680292249       10.5876211631       17.4820458750
  H        24.6380765557       24.4252758659       17.5158645242
  H        25.5165468674       22.9021773684       17.4993055299
  H        13.0893355858       16.6899091070       17.5540811541
  H        21.9879776622       16.8254974638       17.5482163372
  H        17.5036220138       24.4525270760       17.5107721900
      54
 i =        4, time =        4.000, E =      -376.2278719317
  C        13.9657564416       18.7022336359       17.4942829399
  N        13.9665225636       17.2576688851       17.4905999795
  N        12.7458679189       19.3212045039       17.4828745696
  C        12.7621636832       20.6464380254       17.5121839858
  C        11.6704532984       22.6799540440       17.5034987899
  C        13.9469372531       22.7512607099       17.5231686112
  N        10.4018557215       23.3981426559       17.5137139034
  N        11.5663637899       21.3298131345       17.4871120293
  N        12.7621308240       23.4261652346       17.4831901886
  N        13.9367344527       21.3959530368       17.4905814068
  N        17.4898494544       11.1341799626       17.4869202435
  C        17.5103914484       12.5388111147       17.5199342578
  C        16.2895602827       14.5049129333       17.4784535108
  C        15.1977954135       16.5195535876       17.5148333933
  C        18.7027898792       14.5282133674       17.4999137310
  C        17.5290075881       16.6030416647       17.5040144347
  C        19.7892427824       16.5014858463       17.5184661866
  N        19.8481024283       15.1904869405       17.5063063332
  N        18.6706105943       17.2382382843       17.4936618536
  N        15.1148081130       19.3545208053       17.5074921365
  N        16.3469523044       17.2344767524       17.5324897456
  N        17.4821094627       15.1980536502       17.4928752629
  N        18.7130178055       13.1704184889       17.4881496401
  N        16.2660915168       13.1635952360       17.5021383829
  N        15.1270705771       15.1953530150       17.4881490157
  C        21.0793003233       18.7336828614       17.5224889213
  N        19.8840483250       19.3170149856       17.5082938437
  N        21.0465373869       17.2662400957       17.4994301256
  N        22.2264883080       19.3300518837       17.5092262151
  C        15.1272800667       20.6717096920       17.4935301520
  C        16.2307155360       22.7094632616       17.5156525879
  C        19.8421363851       20.6754658724       17.5179338082
  C        18.8007596980       22.7033967416       17.5206217880
  C        22.2738179388       20.6514613715       17.4872026015
  C        21.0917251137       22.7711193904       17.4875810290
  C        23.3413822745       22.6722657434       17.5020787128
  N        15.0788582891       23.4254384123       17.4907583112
  N        16.2776737524       21.3797166480       17.5091019513
  N        17.5014524931       23.3973165957       17.4985836750
  N        19.8773174167       23.4120575498       17.5017398931
  N        22.2276490929       23.4127139419       17.4718161744
  N        23.4062181911       21.3311266531       17.4910729919
  N        21.0543859085       21.3588764967       17.4938009769
  N        18.7187535309       21.3431988099       17.4979320445
  N        24.5777483205       23.3807571054       17.4982764262
  H        10.3831566367       24.4403253026       17.4358596529
  H         9.5017172033       22.8839240987       17.3680976932
  H        18.4305264990       10.6670843717       17.4980602799
  H        16.5674612565       10.6024119158       17.4768777194
  H        24.6350024345       24.4282403222       17.5207766438
  H        25.5129052348       22.8931905037       17.4988629535
  H        13.0883252674       16.6710784077       17.5709291010
  H        22.0128883544       16.8381283063       17.5636072584
  H        17.5047861666       24.4585749699       17.5141849258
      54
 i =        5, time =        5.000, E =      -376.2298861342
  C        13.9705310462       18.6953179116       17.4928851407
  N        13.9771472678       17.2602312762       17.4886286777
  N        12.7446163661       19.3141465560       17.4786692747
  C        12.7645194698       20.6429713203       17.5142578710
  C        11.6682816181       22.6801534296       17.5038995927
  C        13.9459332429       22.7531611827       17.5279830939
  N        10.4118327221       23.3902642659       17.5171568582
  N        11.5611347212       21.3230116238       17.4841455686
  N        12.7601550334       23.4320100836       17.4796198864
  N        13.9360839822       21.4007567462       17.4881553049
  N        17.4867086724       11.1491324423       17.4841174972
  C        17.5114074381       12.5319880885       17.5242339643
  C        16.2867812795       14.5044052031       17.4734141090
  C        15.1955892994       16.5221970601       17.5183752036
  C        18.7021758956       14.5309173005       17.4997403464
  C        17.5332009697       16.6061201106       17.5052434903
  C        19.7929537819       16.5012335505       17.5226873704
  N        19.8512698266       15.1905737246       17.5078669125
  N        18.6742215745       17.2377512055       17.4927677819
  N        15.1131934703       19.3583852566       17.5091010577
  N        16.3502101331       17.2333504693       17.5409510773
  N        17.4799082839       15.1979924394       17.4907124295
  N        18.7203560671       13.1696859238       17.4858511366
  N        16.2556455022       13.1606867256       17.5026224177
  N        15.1199236103       15.1970668461       17.4850841994
  C        21.0793690739       18.7319915722       17.5276344370
  N        19.8863536156       19.3138633684       17.5103755039
  N        21.0410507191       17.2716100796       17.4996316125
  N        22.2262039184       19.3271814821       17.5115224391
  C        15.1250544020       20.6742960429       17.4918063631
  C        16.2328967174       22.7155461041       17.5190348033
  C        19.8398035307       20.6744698679       17.5217103820
  C        18.8019636472       22.7050629356       17.5250772807
  C        22.2749703438       20.6474733758       17.4839806141
  C        21.0960538836       22.7740345601       17.4843100590
  C        23.3451744669       22.6710215410       17.5018840575
  N        15.0758777209       23.4325654361       17.4890353881
  N        16.2742925986       21.3854370816       17.5110902198
  N        17.5021784654       23.3890053109       17.4984100285
  N        19.8751772293       23.4165487062       17.5021071862
  N        22.2293895662       23.4168730948       17.4649517170
  N        23.4078183993       21.3261398635       17.4884962398
  N        21.0544329559       21.3585882646       17.4918566240
  N        18.7201612322       21.3422379669       17.4976347825
  N        24.5650187909       23.3686812500       17.4977057794
  H        10.3915780803       24.4377222062       17.4197489192
  H         9.5053633252       22.8703380135       17.3363826763
  H        18.4332295690       10.6894170991       17.4978972316
  H        16.5834418658       10.6277899818       17.4720519620
  H        24.6259964397       24.4180919362       17.5254800028
  H        25.4932709349       22.8866207626       17.4985899265
  H        13.0977746535       16.6633384456       17.5864087624
  H        22.0227009406       16.8522170458       17.5782100351
  H        17.5058523149       24.4489661148       17.5174728292
      54
 i =        6, time =        6.000, E =      -376.2392345739
  C        13.9740658113       18.6885573238       17.4915460560
  N        13.9879528990       17.2627961892       17.4869041952
  N        12.7439104857       19.3062426613       17.4746292538
  C        12.7643870693       20.6405740010       17.5158648026
  C        11.6638206265       22.6806707873       17.5040097766
  C        13.9435824178       22.7569164761       17.5321982659
  N        10.4221228414       23.3820086569       17.5203681739
  N        11.5568579755       21.3160201932       17.4814370111
  N        12.7590666655       23.4377832328       17.4763717010
  N        13.9353803153       21.4039354544       17.4860139112
  N        17.4842303901       11.1644451809       17.4814755216
  C        17.5114454098       12.5257725730       17.5279538573
  C        16.2828695390       14.5032912380       17.4687470607
  C        15.1944726672       16.5255355255       17.5216988374
  C        18.7014561405       14.5317252108       17.4995130491
  C        17.5354102473       16.6089946444       17.5065129840
  C        19.7974317860       16.5028716820       17.5265745583
  N        19.8552576246       15.1901570642       17.5095170697
  N        18.6781710355       17.2371772250       17.4919971914
  N        15.1120152076       19.3620798933       17.5106026924
  N        16.3534602875       17.2321765862       17.5493180746
  N        17.4786066547       15.1979253100       17.4885321644
  N        18.7272051664       13.1689017760       17.4837563543
  N        16.2463296264       13.1575256366       17.5031439342
  N        15.1125210342       15.1982746063       17.4820009263
  C        21.0770167019       18.7287629363       17.5324669773
  N        19.8883836676       19.3119767020       17.5125853655
  N        21.0358342136       17.2772482508       17.5000724937
  N        22.2279579463       19.3241289601       17.5137942661
  C        15.1239239188       20.6778929392       17.4902511000
  C        16.2349988289       22.7213272594       17.5221156887
  C        19.8380247689       20.6722423429       17.5251862965
  C        18.8007266004       22.7051518357       17.5291306823
  C        22.2755928449       20.6437460457       17.4809824019
  C        21.0983971837       22.7765769549       17.4811187567
  C        23.3503673738       22.6701230691       17.5013850365
  N        15.0742865259       23.4403058654       17.4875765422
  N        16.2705060284       21.3904069872       17.5130805988
  N        17.5030488900       23.3808030480       17.4983966870
  N        19.8747656486       23.4221173827       17.5025089428
  N        22.2314183681       23.4216996156       17.4582543387
  N        23.4101911903       21.3213789926       17.4860009215
  N        21.0552067428       21.3589113363       17.4899831369
  N        18.7213564921       21.3419772647       17.4975426163
  N        24.5523482908       23.3567647219       17.4972038114
  H        10.4030604307       24.4208317184       17.4044368561
  H         9.5249780840       22.8629389353       17.3077769996
  H        18.4220779117       10.7149405092       17.4974967728
  H        16.6092902695       10.6590888550       17.4677328527
  H        24.6110983019       24.3943351944       17.5296969039
  H        25.4608249917       22.8811807472       17.4985254027
  H        13.1191240534       16.6687953815       17.5993456044
  H        22.0136044582       16.8679443105       17.5910047825
  H        17.5068814075       24.4244245459       17.5204618499
      54
 i =        7, time =        7.000, E =      -376.2489611106
  C        13.9764374028       18.6821266104       17.4902374343
  N        13.9991677867       17.2654468255       17.4854111853
  N        12.7437945463       19.2974260454       17.4706801516
  C        12.7617304025       20.6390691755       17.5169701256
  C        11.6573599542       22.6813130088       17.5038001885
  C        13.9399130371       22.7626628273       17.5358292233
  N        10.4327696535       23.3731565569       17.5233890793
  N        11.5535215273       21.3088239030       17.4789519141
  N        12.7587264878       23.4434812766       17.4734078333
  N        13.9345304474       21.4055325477       17.4841405943
  N        17.4829369239       11.1806040105       17.4789582030
  C        17.5105051846       12.5208047814       17.5311033794
  C        16.2776874007       14.5015526897       17.4643942926
  C        15.1946855326       16.5294824948       17.5248521816
  C        18.7007175181       14.5306427511       17.4992209258
  C        17.5357012675       16.6116290100       17.5078629938
  C        19.8026594737       16.5063414509       17.5301743378
  N        19.8600856666       15.1892656056       17.5113138870
  N        18.6824981632       17.2365172972       17.4913502711
  N        15.1112720855       19.3656457638       17.5120173242
  N        16.3567220551       17.2309877453       17.5577989656
  N        17.4781677920       15.1978151904       17.4862738431
  N        18.7335111145       13.1680161743       17.4818449038
  N        16.2380833679       13.1540968070       17.5037206217
  N        15.1047965878       15.1990367123       17.4788177989
  C        21.0723250891       18.7240971499       17.5370594464
  N        19.8900731990       19.3113937787       17.5150002534
  N        21.0308031124       17.2832327755       17.5007967222
  N        22.2316905235       19.3207542232       17.5160984084
  C        15.1238275017       20.6825768992       17.4888556440
  C        16.2368547012       22.7267882078       17.5249285460
  C        19.8368909749       20.6687868596       17.5284055072
  C        18.7972124781       22.7036395549       17.5328215190
  C        22.2757062935       20.6402724049       17.4781687686
  C        21.0987807224       22.7788115231       17.4779401345
  C        23.3565251506       22.6692828233       17.5005127710
  N        15.0740892137       23.4487793083       17.4863840796
  N        16.2662755377       21.3947355399       17.5151260636
  N        17.5040944948       23.3723469045       17.4985612340
  N        19.8760055408       23.4287645034       17.5029602953
  N        22.2338094419       23.4271788108       17.4515735502
  N        23.4133512957       21.3167990463       17.4835363075
  N        21.0567118113       21.3598365909       17.4881429868
  N        18.7223273780       21.3424053139       17.4976861004
  N        24.5393330828       23.3448831913       17.4967670471
  H        10.4178877631       24.3916933952       17.3895796890
  H         9.5600838424       22.8611750631       17.2820991219
  H        18.4005346219       10.7417734009       17.4968071476
  H        16.6342713278       10.6902231913       17.4636873048
  H        24.5902916720       24.3605532637       17.5335357612
  H        25.4218250183       22.8732559395       17.4986955813
  H        13.1502311791       16.6862195353       17.6098671856
  H        21.9871422799       16.8843476905       17.6021302930
  H        17.5080818265       24.3900413471       17.5232536938
      54
 i =        8, time =        8.000, E =      -376.2524461941
  C        13.9776696903       18.6765757459       17.4889994866
  N        14.0107101327       17.2683399516       17.4841738139
  N        12.7442702093       19.2881295143       17.4669580964
  C        12.7567410996       20.6382912530       17.5174771298
  C        11.6496537835       22.6818333792       17.5032656181
  C        13.9352268669       22.7701458050       17.5386927575
  N        10.4435256762       23.3638491893       17.5262006442
  N        11.5512333358       21.3018125625       17.4767849190
  N        12.7589467287       23.4488112273       17.4708483554
  N        13.9334591227       21.4055988369       17.4826216676
  N        17.4832188797       11.1973483676       17.4766562104
  C        17.5086617965       12.5180478932       17.5335277461
  C        16.2714128254       14.4992779754       17.4605321591
  C        15.1964280007       16.5337099624       17.5277133320
  C        18.7001325070       14.5277975009       17.4988703941
  C        17.5342441438       16.6138398445       17.5092607590
  C        19.8083091579       16.5113115278       17.5333373650
  N        19.8655189311       15.1880080772       17.5132204350
  N        18.6869532527       17.2358047712       17.4908628469