 DBCSR| CPU Multiplication driver                                           BLAS
 DBCSR| Multrec recursion limit                                              512
 DBCSR| Multiplication stack size                                           1000
 DBCSR| Maximum elements for images                                    UNLIMITED
 DBCSR| Multiplicative factor virtual images                                   1
 DBCSR| Use multiplication densification                                       T
 DBCSR| Multiplication size stacks                                             3
 DBCSR| Use memory pool for CPU allocation                                     F
 DBCSR| Number of 3D layers                                               SINGLE
 DBCSR| Use MPI memory allocation                                              F
 DBCSR| Use RMA algorithm                                                      F
 DBCSR| Use Communication thread                                               T
 DBCSR| Communication thread load                                             87
 DBCSR| MPI: My node id                                                        0
 DBCSR| MPI: Number of nodes                                                  12
 DBCSR| OMP: Current number of threads                                         1
 DBCSR| OMP: Max number of threads                                             1
 DBCSR| Split modifier for TAS multiplication algorithm                  1.0E+00


  **** **** ******  **  PROGRAM STARTED AT               2021-05-27 03:05:53.741
 ***** ** ***  *** **   PROGRAM STARTED ON        cpn-p27-16.compute.cbls.ccr.bu
 **    ****   ******    PROGRAM STARTED BY                              alexeyak
 ***** **    ** ** **   PROGRAM PROCESS ID                                 28989
  **** **  *******  **  PROGRAM STARTED IN /projects/academic/cyberwksp21/Instru
                                           ctors_material/alexeyak/cp2k/tddft

 CP2K| version string:                    CP2K version 9.0 (Development Version)
 CP2K| source code revision number:                                  git:36754bb
 CP2K| cp2kflags: omp fftw3 parallel mpi3 scalapack spglib mkl libvori libbqb   
 CP2K| is freely available from                            https://www.cp2k.org/
 CP2K| Program compiled at                          Thu Apr 22 21:44:59 EDT 2021
 CP2K| Program compiled on            cpn-k07-07-02.compute.cbls.ccr.buffalo.edu
 CP2K| Program compiled for                                                local
 CP2K| Data directory path                 /util/academic/cp2k/8.1-sse/cp2k/data
 CP2K| Input file name                                   cp2k_input_template.inp

 GLOBAL| Force Environment number                                              1
 GLOBAL| Basis set file name                                        BASIS_MOLOPT
 GLOBAL| Potential file name                                           POTENTIAL
 GLOBAL| MM Potential file name                                     MM_POTENTIAL
 GLOBAL| Coordinate file name                                          coord.xyz
 GLOBAL| Method name                                                        CP2K
 GLOBAL| Project name                                                     c10h16
 GLOBAL| Preferred FFT library                                             FFTW3
 GLOBAL| Preferred diagonalization lib.                                       SL
 GLOBAL| Run type                                                         ENERGY
 GLOBAL| All-to-all communication in single precision                          F
 GLOBAL| FFTs using library dependent lengths                                  F
 GLOBAL| Grid backend                                                       AUTO
 GLOBAL| Global print level                                               MEDIUM
 GLOBAL| MPI I/O enabled                                                       T
 GLOBAL| Total number of message passing processes                            12
 GLOBAL| Number of threads for this process                                    1
 GLOBAL| This output is from process                                           0
 GLOBAL| CPU model name                Intel(R) Xeon(R) CPU E5-2620 v3 @ 2.40GHz
 GLOBAL| CPUID                                                              1000

 MEMORY| system memory details [Kb]
 MEMORY|                        rank 0           min           max       average
 MEMORY| MemTotal            131633840     131633840     131633840     131633840
 MEMORY| MemFree             126347388     126347388     126347388     126347388
 MEMORY| Buffers                  2268          2268          2268          2268
 MEMORY| Cached                 540516        540516        540516        540516
 MEMORY| Slab                   171748        171748        171748        171748
 MEMORY| SReclaimable           106420        106420        106420        106420
 MEMORY| MemLikelyFree       126996592     126996592     126996592     126996592


 *** Fundamental physical constants (SI units) ***

 *** Literature: B. J. Mohr and B. N. Taylor,
 ***             CODATA recommended values of the fundamental physical
 ***             constants: 2006, Web Version 5.1
 ***             http://physics.nist.gov/constants

 Speed of light in vacuum [m/s]                             2.99792458000000E+08
 Magnetic constant or permeability of vacuum [N/A**2]       1.25663706143592E-06
 Electric constant or permittivity of vacuum [F/m]          8.85418781762039E-12
 Planck constant (h) [J*s]                                  6.62606896000000E-34
 Planck constant (h-bar) [J*s]                              1.05457162825177E-34
 Elementary charge [C]                                      1.60217648700000E-19
 Electron mass [kg]                                         9.10938215000000E-31
 Electron g factor [ ]                                     -2.00231930436220E+00
 Proton mass [kg]                                           1.67262163700000E-27
 Fine-structure constant                                    7.29735253760000E-03
 Rydberg constant [1/m]                                     1.09737315685270E+07
 Avogadro constant [1/mol]                                  6.02214179000000E+23
 Boltzmann constant [J/K]                                   1.38065040000000E-23
 Atomic mass unit [kg]                                      1.66053878200000E-27
 Bohr radius [m]                                            5.29177208590000E-11

 *** Conversion factors ***

 [u] -> [a.u.]                                              1.82288848426455E+03
 [Angstrom] -> [Bohr] = [a.u.]                              1.88972613288564E+00
 [a.u.] = [Bohr] -> [Angstrom]                              5.29177208590000E-01
 [a.u.] -> [s]                                              2.41888432650478E-17
 [a.u.] -> [fs]                                             2.41888432650478E-02
 [a.u.] -> [J]                                              4.35974393937059E-18
 [a.u.] -> [N]                                              8.23872205491840E-08
 [a.u.] -> [K]                                              3.15774647902944E+05
 [a.u.] -> [kJ/mol]                                         2.62549961709828E+03
 [a.u.] -> [kcal/mol]                                       6.27509468713739E+02
 [a.u.] -> [Pa]                                             2.94210107994716E+13
 [a.u.] -> [bar]                                            2.94210107994716E+08
 [a.u.] -> [atm]                                            2.90362800883016E+08
 [a.u.] -> [eV]                                             2.72113838565563E+01
 [a.u.] -> [Hz]                                             6.57968392072181E+15
 [a.u.] -> [1/cm] (wave numbers)                            2.19474631370540E+05
 [a.u./Bohr**2] -> [1/cm]                                   5.14048714338585E+03
 

 CELL_TOP| Volume [angstrom^3]:                                      3375.000000
 CELL_TOP| Vector a [angstrom    15.000     0.000     0.000   |a| =    15.000000
 CELL_TOP| Vector b [angstrom     0.000    15.000     0.000   |b| =    15.000000
 CELL_TOP| Vector c [angstrom     0.000     0.000    15.000   |c| =    15.000000
 CELL_TOP| Angle (b,c), alpha [degree]:                                90.000000
 CELL_TOP| Angle (a,c), beta  [degree]:                                90.000000
 CELL_TOP| Angle (a,b), gamma [degree]:                                90.000000
 CELL_TOP| Numerically orthorhombic:                                         YES

 GENERATE|  Preliminary Number of Bonds generated:                             0
 GENERATE|  Achieved consistency in connectivity generation.

 CELL| Volume [angstrom^3]:                                          3375.000000
 CELL| Vector a [angstrom]:      15.000     0.000     0.000   |a| =    15.000000
 CELL| Vector b [angstrom]:       0.000    15.000     0.000   |b| =    15.000000
 CELL| Vector c [angstrom]:       0.000     0.000    15.000   |c| =    15.000000
 CELL| Angle (b,c), alpha [degree]:                                    90.000000
 CELL| Angle (a,c), beta  [degree]:                                    90.000000
 CELL| Angle (a,b), gamma [degree]:                                    90.000000
 CELL| Numerically orthorhombic:                                             YES

 CELL_REF| Volume [angstrom^3]:                                      3375.000000
 CELL_REF| Vector a [angstrom    15.000     0.000     0.000   |a| =    15.000000
 CELL_REF| Vector b [angstrom     0.000    15.000     0.000   |b| =    15.000000
 CELL_REF| Vector c [angstrom     0.000     0.000    15.000   |c| =    15.000000
 CELL_REF| Angle (b,c), alpha [degree]:                                90.000000
 CELL_REF| Angle (a,c), beta  [degree]:                                90.000000
 CELL_REF| Angle (a,b), gamma [degree]:                                90.000000
 CELL_REF| Numerically orthorhombic:                                         YES

 *******************************************************************************
 *******************************************************************************
 **                                                                           **
 **     #####                         ##              ##                      **
 **    ##   ##            ##          ##              ##                      **
 **   ##     ##                       ##            ######                    **
 **   ##     ##  ##   ##  ##   #####  ##  ##   ####   ##    #####    #####    **
 **   ##     ##  ##   ##  ##  ##      ## ##   ##      ##   ##   ##  ##   ##   **
 **   ##  ## ##  ##   ##  ##  ##      ####     ###    ##   ######   ######    **
 **    ##  ###   ##   ##  ##  ##      ## ##      ##   ##   ##       ##        **
 **     #######   #####   ##   #####  ##  ##  ####    ##    #####   ##        **
 **           ##                                                    ##        **
 **                                                                           **
 **                                                ... make the atoms dance   **
 **                                                                           **
 **            Copyright (C) by CP2K developers group (2000-2021)             **
 **                      J. Chem. Phys. 152, 194103 (2020)                    **
 **                                                                           **
 *******************************************************************************

 DFT| Spin restricted Kohn-Sham (RKS) calculation                            RKS
 DFT| Multiplicity                                                             1
 DFT| Number of spin states                                                    1
 DFT| Charge                                                                   0
 DFT| Self-interaction correction (SIC)                                       NO
 DFT| Cutoffs: density                                              1.000000E-10
 DFT|          gradient                                             1.000000E-10
 DFT|          tau                                                  1.000000E-10
 DFT|          cutoff_smoothing_range                               0.000000E+00
 DFT| XC density smoothing                                                  NONE
 DFT| XC derivatives                                                          PW
 FUNCTIONAL| ROUTINE=NEW
 FUNCTIONAL| PBE:
 FUNCTIONAL| J.P.Perdew, K.Burke, M.Ernzerhof, Phys. Rev. Letter, vol. 77, n 18,
 FUNCTIONAL|  pp. 3865-3868, (1996){spin unpolarized}                           

 QS| Method:                                                                 GPW
 QS| Density plane wave grid type                        NON-SPHERICAL FULLSPACE
 QS| Number of grid levels:                                                    4
 QS| Density cutoff [a.u.]:                                                200.0
 QS| Multi grid cutoff [a.u.]: 1) grid level                               200.0
 QS|                           2) grid level                                66.7
 QS|                           3) grid level                                22.2
 QS|                           4) grid level                                 7.4
 QS| Grid level progression factor:                                          3.0
 QS| Relative density cutoff [a.u.]:                                        30.0
 QS| Interaction thresholds: eps_pgf_orb:                                1.0E-08
 QS|                         eps_filter_matrix:                          0.0E+00
 QS|                         eps_core_charge:                            1.0E-18
 QS|                         eps_rho_gspace:                             1.0E-16
 QS|                         eps_rho_rspace:                             1.0E-16
 QS|                         eps_gvg_rspace:                             1.0E-08
 QS|                         eps_ppl:                                    1.0E-02
 QS|                         eps_ppnl:                                   1.0E-10


 ATOMIC KIND INFORMATION

  1. Atomic kind: C                                     Number of atoms:      10

     Orbital Basis Set                                           DZVP-MOLOPT-GTH

       Number of orbital shell sets:                                           1
       Number of orbital shells:                                               5
       Number of primitive Cartesian functions:                                7
       Number of Cartesian basis functions:                                   14
       Number of spherical basis functions:                                   13
       Norm type:                                                              2

       Normalised Cartesian orbitals:

                        Set   Shell   Orbital            Exponent    Coefficient

                          1       1    2s                6.132625      -0.263661
                                                         2.625196      -0.231112
                                                         1.045457       0.042712
                                                         0.478316       0.306085
                                                         0.178617       0.065483
                                                         0.075145       0.000568
                                                         0.030287       0.000417

                          1       2    3s                6.132625       0.131937
                                                         2.625196       0.414269
                                                         1.045457      -0.593590
                                                         0.478316       0.644922
                                                         0.178617       0.069203
                                                         0.075145      -0.145101
                                                         0.030287       0.008247

                          1       3    3px               6.132625       0.562677
                                                         2.625196       0.633910
                                                         1.045457       0.379157
                                                         0.478316       0.235193
                                                         0.178617       0.052379
                                                         0.075145       0.003677
                                                         0.030287       0.000105
                          1       3    3py               6.132625       0.562677
                                                         2.625196       0.633910
                                                         1.045457       0.379157
                                                         0.478316       0.235193
                                                         0.178617       0.052379
                                                         0.075145       0.003677
                                                         0.030287       0.000105
                          1       3    3pz               6.132625       0.562677
                                                         2.625196       0.633910
                                                         1.045457       0.379157
                                                         0.478316       0.235193
                                                         0.178617       0.052379
                                                         0.075145       0.003677
                                                         0.030287       0.000105

                          1       4    4px               6.132625      -0.472364
                                                         2.625196      -0.221326
                                                         1.045457      -0.481781
                                                         0.478316       0.135466
                                                         0.178617       0.072281
                                                         0.075145       0.024920
                                                         0.030287       0.002706
                          1       4    4py               6.132625      -0.472364
                                                         2.625196      -0.221326
                                                         1.045457      -0.481781
                                                         0.478316       0.135466
                                                         0.178617       0.072281
                                                         0.075145       0.024920
                                                         0.030287       0.002706
                          1       4    4pz               6.132625      -0.472364
                                                         2.625196      -0.221326
                                                         1.045457      -0.481781
                                                         0.478316       0.135466
                                                         0.178617       0.072281
                                                         0.075145       0.024920
                                                         0.030287       0.002706

                          1       5    4dx2              6.132625       0.874783
                                                         2.625196       0.375772
                                                         1.045457       0.653959
                                                         0.478316       0.191007
                                                         0.178617       0.018656
                                                         0.075145       0.003649
                                                         0.030287      -0.000011
                          1       5    4dxy              6.132625       1.515169
                                                         2.625196       0.650856
                                                         1.045457       1.132690
                                                         0.478316       0.330834
                                                         0.178617       0.032314
                                                         0.075145       0.006321
                                                         0.030287      -0.000019
                          1       5    4dxz              6.132625       1.515169
                                                         2.625196       0.650856
                                                         1.045457       1.132690
                                                         0.478316       0.330834
                                                         0.178617       0.032314
                                                         0.075145       0.006321
                                                         0.030287      -0.000019
                          1       5    4dy2              6.132625       0.874783
                                                         2.625196       0.375772
                                                         1.045457       0.653959
                                                         0.478316       0.191007
                                                         0.178617       0.018656
                                                         0.075145       0.003649
                                                         0.030287      -0.000011
                          1       5    4dyz              6.132625       1.515169
                                                         2.625196       0.650856
                                                         1.045457       1.132690
                                                         0.478316       0.330834
                                                         0.178617       0.032314
                                                         0.075145       0.006321
                                                         0.030287      -0.000019
                          1       5    4dz2              6.132625       0.874783
                                                         2.625196       0.375772
                                                         1.045457       0.653959
                                                         0.478316       0.191007
                                                         0.178617       0.018656
                                                         0.075145       0.003649
                                                         0.030287      -0.000011

       Atomic covalent radius [Angstrom]:                                  0.770

       Atomic van der Waals radius [Angstrom]:                             1.700

     GTH Potential information for                                    GTH-PBE-q4

       Description:                       Goedecker-Teter-Hutter pseudopotential
                                           Goedecker et al., PRB 54, 1703 (1996)
                                          Hartwigsen et al., PRB 58, 3641 (1998)
                                                      Krack, TCA 114, 145 (2005)

       Gaussian exponent of the core charge distribution:               4.364419
       Electronic configuration (s p d ...):                               2   2

       Parameters of the local part of the GTH pseudopotential:

                          rloc        C1          C2          C3          C4
                        0.338471   -8.803674    1.339211

       Parameters of the non-local part of the GTH pseudopotential:

                   l      r(l)      h(i,j,l)

                   0    0.302576    9.622487
                   1    0.291507

  2. Atomic kind: H                                     Number of atoms:      16

     Orbital Basis Set                                           DZVP-MOLOPT-GTH

       Number of orbital shell sets:                                           1
       Number of orbital shells:                                               3
       Number of primitive Cartesian functions:                                7
       Number of Cartesian basis functions:                                    5
       Number of spherical basis functions:                                    5
       Norm type:                                                              2

       Normalised Cartesian orbitals:

                        Set   Shell   Orbital            Exponent    Coefficient

                          1       1    2s               11.478000       0.129129
                                                         3.700759       0.177012
                                                         1.446884       0.141285
                                                         0.716815       0.245670
                                                         0.247919       0.094768
                                                         0.066918       0.004062
                                                         0.021708      -0.000053

                          1       2    3s               11.478000      -0.079256
                                                         3.700759      -0.152992
                                                         1.446884       0.015066
                                                         0.716815      -0.331234
                                                         0.247919       0.210690
                                                         0.066918       0.058630
                                                         0.021708      -0.003429

                          1       3    3px              11.478000       0.325290
                                                         3.700759       0.187466
                                                         1.446884       0.443300
                                                         0.716815       0.267738
                                                         0.247919       0.088285
                                                         0.066918       0.019092
                                                         0.021708       0.000629
                          1       3    3py              11.478000       0.325290
                                                         3.700759       0.187466
                                                         1.446884       0.443300
                                                         0.716815       0.267738
                                                         0.247919       0.088285
                                                         0.066918       0.019092
                                                         0.021708       0.000629
                          1       3    3pz              11.478000       0.325290
                                                         3.700759       0.187466
                                                         1.446884       0.443300
                                                         0.716815       0.267738
                                                         0.247919       0.088285
                                                         0.066918       0.019092
                                                         0.021708       0.000629

       Atomic covalent radius [Angstrom]:                                  0.320

       Atomic van der Waals radius [Angstrom]:                             1.090

     GTH Potential information for                                    GTH-PBE-q1

       Description:                       Goedecker-Teter-Hutter pseudopotential
                                           Goedecker et al., PRB 54, 1703 (1996)
                                          Hartwigsen et al., PRB 58, 3641 (1998)
                                                      Krack, TCA 114, 145 (2005)

       Gaussian exponent of the core charge distribution:              12.500000
       Electronic configuration (s p d ...):                                   1

       Parameters of the local part of the GTH pseudopotential:

                          rloc        C1          C2          C3          C4
                        0.200000   -4.178900    0.724463


 MOLECULE KIND INFORMATION


 All atoms are their own molecule, skipping detailed information


 TOTAL NUMBERS AND MAXIMUM NUMBERS

  Total number of            - Atomic kinds:                                   2
                             - Atoms:                                         26
                             - Shell sets:                                    26
                             - Shells:                                        98
                             - Primitive Cartesian functions:                182
                             - Cartesian basis functions:                    220
                             - Spherical basis functions:                    210

  Maximum angular momentum of- Orbital basis functions:                        2
                             - Local part of the GTH pseudopotential:          2
                             - Non-local part of the GTH pseudopotential:      0


 MODULE QUICKSTEP:  ATOMIC COORDINATES IN angstrom

  Atom  Kind  Element       X           Y           Z          Z(eff)       Mass

       1     1 C    6    9.178580    5.928680    6.784230      4.0000      12.0107
       2     1 C    6    8.288780    6.827330    5.895700      4.0000      12.0107
       3     1 C    6    9.184490    7.712870    5.000010      4.0000      12.0107
       4     1 C    6   10.068360    6.815530    4.104270      4.0000      12.0107
       5     1 C    6   10.956860    5.916830    4.994050      4.0000      12.0107
       6     1 C    6    9.160840    4.144480    5.000060      4.0000      12.0107
       7     1 C    6   10.062460    5.030020    5.889820      4.0000      12.0107
       8     1 C    6    7.388480    5.940480    5.005880      4.0000      12.0107
       9     1 C    6    8.271070    5.041840    4.110200      4.0000      12.0107
      10     1 C    6    9.166750    5.928710    3.215770      4.0000      12.0107
      11     2 H    1    8.541821    5.298140    7.443030      1.0000       1.0079
      12     2 H    1    9.819710    6.559260    7.438760      1.0000       1.0079
      13     2 H    1    7.653340    7.473351    6.539620      1.0000       1.0079
      14     2 H    1    8.552010    8.373790    4.367380      1.0000       1.0079
      15     2 H    1    9.825700    8.365280    5.632710      1.0000       1.0079
      16     2 H    1   10.712270    7.453100    3.460340      1.0000       1.0079
      17     2 H    1   11.619880    6.547200    5.626580      1.0000       1.0079
      18     2 H    1   11.607130    5.277700    4.357070      1.0000       1.0079
      19     2 H    1    9.789130    3.483580    4.363250      1.0000       1.0079
      20     2 H    1    8.523830    3.492070    5.636970      1.0000       1.0079
      21     2 H    1   10.702130    4.383980    6.529520      1.0000       1.0079
      22     2 H    1    6.729700    5.310070    5.642790      1.0000       1.0079
      23     2 H    1    6.733950    6.579590    4.373250      1.0000       1.0079
      24     2 H    1    7.622920    4.404290    3.470520      1.0000       1.0079
      25     2 H    1    9.795130    5.289790    2.556990      1.0000       1.0079
      26     2 H    1    8.534019    6.567690    2.561230      1.0000       1.0079




 SCF PARAMETERS         Density guess:                                   RESTART
                        --------------------------------------------------------
                        max_scf:                                             300
                        max_scf_history:                                       0
                        max_diis:                                              4
                        --------------------------------------------------------
                        eps_scf:                                        1.00E-06
                        eps_scf_history:                                0.00E+00
                        eps_diis:                                       1.00E-01
                        eps_eigval:                                     1.00E-05
                        --------------------------------------------------------
                        level_shift [a.u.]:                                 0.00
                        added MOs                                        20    0
                        --------------------------------------------------------
                        Mixing method:                            BROYDEN_MIXING
                                                charge density mixing in g-space
                        --------------------------------------------------------
                        No outer SCF

 PW_GRID| Information for grid number                                          1
 PW_GRID| Grid distributed over                                    12 processors
 PW_GRID| Real space group dimensions                                    12    1
 PW_GRID| the grid is blocked:                                                NO
 PW_GRID| Cutoff [a.u.]                                                    200.0
 PW_GRID| spherical cutoff:                                                   NO
 PW_GRID|   Bounds   1            -96      95                Points:         192
 PW_GRID|   Bounds   2            -96      95                Points:         192
 PW_GRID|   Bounds   3            -96      95                Points:         192
 PW_GRID| Volume element (a.u.^3)  0.3218E-02     Volume (a.u.^3)     22775.6292
 PW_GRID| Grid span                                                    FULLSPACE
 PW_GRID|   Distribution                         Average         Max         Min
 PW_GRID|   G-Vectors                           589824.0      589824      589824
 PW_GRID|   G-Rays                                3072.0        3072        3072
 PW_GRID|   Real Space Points                   589824.0      589824      589824

 PW_GRID| Information for grid number                                          2
 PW_GRID| Number of the reference grid                                         1
 PW_GRID| Grid distributed over                                    12 processors
 PW_GRID| Real space group dimensions                                    12    1
 PW_GRID| the grid is blocked:                                                NO
 PW_GRID| Cutoff [a.u.]                                                     66.7
 PW_GRID| spherical cutoff:                                                   NO
 PW_GRID|   Bounds   1            -54      53                Points:         108
 PW_GRID|   Bounds   2            -54      53                Points:         108
 PW_GRID|   Bounds   3            -54      53                Points:         108
 PW_GRID| Volume element (a.u.^3)  0.1808E-01     Volume (a.u.^3)     22775.6292
 PW_GRID| Grid span                                                    FULLSPACE
 PW_GRID|   Distribution                         Average         Max         Min
 PW_GRID|   G-Vectors                           104976.0      105300      104760
 PW_GRID|   G-Rays                                 972.0         975         970
 PW_GRID|   Real Space Points                   104976.0      104976      104976

 PW_GRID| Information for grid number                                          3
 PW_GRID| Number of the reference grid                                         1
 PW_GRID| Grid distributed over                                    12 processors
 PW_GRID| Real space group dimensions                                    12    1
 PW_GRID| the grid is blocked:                                                NO
 PW_GRID| Cutoff [a.u.]                                                     22.2
 PW_GRID| spherical cutoff:                                                   NO
 PW_GRID|   Bounds   1            -32      31                Points:          64
 PW_GRID|   Bounds   2            -32      31                Points:          64
 PW_GRID|   Bounds   3            -32      31                Points:          64
 PW_GRID| Volume element (a.u.^3)  0.8688E-01     Volume (a.u.^3)     22775.6292
 PW_GRID| Grid span                                                    FULLSPACE
 PW_GRID|   Distribution                         Average         Max         Min
 PW_GRID|   G-Vectors                            21845.3       21888       21760
 PW_GRID|   G-Rays                                 341.3         342         340
 PW_GRID|   Real Space Points                    21845.3       24576       20480

 PW_GRID| Information for grid number                                          4
 PW_GRID| Number of the reference grid                                         1
 PW_GRID| Grid distributed over                                    12 processors
 PW_GRID| Real space group dimensions                                    12    1
 PW_GRID| the grid is blocked:                                                NO
 PW_GRID| Cutoff [a.u.]                                                      7.4
 PW_GRID| spherical cutoff:                                                   NO
 PW_GRID|   Bounds   1            -18      17                Points:          36
 PW_GRID|   Bounds   2            -18      17                Points:          36
 PW_GRID|   Bounds   3            -18      17                Points:          36
 PW_GRID| Volume element (a.u.^3)  0.4882         Volume (a.u.^3)     22775.6292
 PW_GRID| Grid span                                                    FULLSPACE
 PW_GRID|   Distribution                         Average         Max         Min
 PW_GRID|   G-Vectors                             3888.0        3996        3816
 PW_GRID|   G-Rays                                 108.0         111         106
 PW_GRID|   Real Space Points                     3888.0        3888        3888

 POISSON| Solver                                                         WAVELET
 POISSON| Wavelet| Scaling function                                           40
 POISSON| Periodicity                                                       NONE

 RS_GRID| Information for grid number                                          1
 RS_GRID|   Bounds   1            -96      95                Points:         192
 RS_GRID|   Bounds   2            -96      95                Points:         192
 RS_GRID|   Bounds   3            -96      95                Points:         192
 RS_GRID| Real space distribution over                                  3 groups
 RS_GRID| Real space distribution along direction                              2
 RS_GRID| Border size                                                         30
 RS_GRID| Real space distribution over                                  4 groups
 RS_GRID| Real space distribution along direction                              3
 RS_GRID| Border size                                                         30
 RS_GRID|   Distribution                         Average         Max         Min
 RS_GRID|   Planes                                 124.0         124         124
 RS_GRID|   Distribution                         Average         Max         Min
 RS_GRID|   Planes                                 108.0         108         108

 RS_GRID| Information for grid number                                          2
 RS_GRID|   Bounds   1            -54      53                Points:         108
 RS_GRID|   Bounds   2            -54      53                Points:         108
 RS_GRID|   Bounds   3            -54      53                Points:         108
 RS_GRID| Real space fully replicated
 RS_GRID| Group size                                                           1

 RS_GRID| Information for grid number                                          3
 RS_GRID|   Bounds   1            -32      31                Points:          64
 RS_GRID|   Bounds   2            -32      31                Points:          64
 RS_GRID|   Bounds   3            -32      31                Points:          64
 RS_GRID| Real space fully replicated
 RS_GRID| Group size                                                           1

 RS_GRID| Information for grid number                                          4
 RS_GRID|   Bounds   1            -18      17                Points:          36
 RS_GRID|   Bounds   2            -18      17                Points:          36
 RS_GRID|   Bounds   3            -18      17                Points:          36
 RS_GRID| Real space fully replicated
 RS_GRID| Group size                                                           1

 Number of electrons:                                                         56
 Number of occupied orbitals:                                                 28
 Number of molecular orbitals:                                                48

 Number of orbital functions:                                                210
 Number of independent orbital functions:                                    210

 Extrapolation method: initial_guess

 *** WARNING in qs_initial_guess.F:309 :: User requested to restart the   ***
 *** wavefunction from the file named: RESTART.wfn. This file does not    ***
 *** exist. Please check the existence of the file or change properly the ***
 *** value of the keyword WFN_RESTART_FILE_NAME. Calculation continues    ***
 *** using ATOMIC GUESS.                                                  ***


 Atomic guess: The first density matrix is obtained in terms of atomic orbitals
               and electronic configurations assigned to each atomic kind

 Guess for atomic kind: C

 Electronic structure
    Total number of core electrons                                          2.00
    Total number of valence electrons                                       4.00
    Total number of electrons                                               6.00
    Multiplicity                                                   not specified
    S   [  2.00] 2.00
    P      2.00


 *******************************************************************************
                  Iteration          Convergence                     Energy [au]
 *******************************************************************************
                          1        0.427148E-01                  -5.227811253113
                          2        0.218489E-01                  -5.228672519307
                          3        0.666851E-04                  -5.228969180638
                          4        0.102221E-07                  -5.228969183366

 Energy components [Hartree]           Total Energy ::           -5.228969183366
                                        Band Energy ::           -1.112012594120
                                     Kinetic Energy ::            3.667652954033
                                   Potential Energy ::           -8.896622137400
                                      Virial (-V/T) ::            2.425699009394
                                        Core Energy ::           -8.354438099696
                                          XC Energy ::           -1.430507543452
                                     Coulomb Energy ::            4.555976459783
                       Total Pseudopotential Energy ::          -12.054077133824
                       Local Pseudopotential Energy ::          -12.576063923110
                    Nonlocal Pseudopotential Energy ::            0.521986789286
                                        Confinement ::            0.319860800937

 Orbital energies  State     L     Occupation   Energy[a.u.]          Energy[eV]

                       1     0          2.000      -0.418938          -11.399891

                       1     1          2.000      -0.137068           -3.729809


 Total Electron Density at R=0:                                         0.015856

 Guess for atomic kind: H

 Electronic structure
    Total number of core electrons                                          0.00
    Total number of valence electrons                                       1.00
    Total number of electrons                                               1.00
    Multiplicity                                                   not specified
    S      1.00


 *******************************************************************************
                  Iteration          Convergence                     Energy [au]
 *******************************************************************************
                          1        0.437545E-02                  -0.424159432110
                          2        0.531356E-03                  -0.424178438213
                          3        0.259176E-06                  -0.424178722480

 Energy components [Hartree]           Total Energy ::           -0.424178722480
                                        Band Energy ::           -0.199015229016
                                     Kinetic Energy ::            0.464007633961
                                   Potential Energy ::           -0.888186356441
                                      Virial (-V/T) ::            1.914163240935
                                        Core Energy ::           -0.479160803564
                                          XC Energy ::           -0.244352904054
                                     Coulomb Energy ::            0.299334985138
                       Total Pseudopotential Energy ::           -0.962295316385
                       Local Pseudopotential Energy ::           -0.962295316385
                    Nonlocal Pseudopotential Energy ::            0.000000000000
                                        Confinement ::            0.191268788606

 Orbital energies  State     L     Occupation   Energy[a.u.]          Energy[eV]

                       1     0          1.000      -0.199015           -5.415480


 Total Electron Density at R=0:                                         0.242907
 Re-scaling the density matrix to get the right number of electrons
                  # Electrons              Trace(P)               Scaling factor
                           56                56.000                        1.000


 SCF WAVEFUNCTION OPTIMIZATION

  Step     Update method      Time    Convergence         Total energy    Change
  ------------------------------------------------------------------------------
     1 NoMix/Diag. 0.50E+00    3.1     1.30756337       -64.9324568951 -6.49E+01
     2 Broy./Diag. 0.50E+00    3.0     0.07603760       -61.4576883831  3.47E+00
     3 Broy./Diag. 0.50E+00    3.0     0.01970298       -65.2934506959 -3.84E+00
     4 Broy./Diag. 0.50E+00    3.0     0.00363722       -66.2547827153 -9.61E-01
     5 Broy./Diag. 0.50E+00    3.0     0.00202051       -66.3374545642 -8.27E-02
     6 Broy./Diag. 0.50E+00    3.1     0.00268021       -66.3447502682 -7.30E-03
     7 Broy./Diag. 0.50E+00    3.0     0.00143692       -66.3944182043 -4.97E-02
     8 Broy./Diag. 0.50E+00    3.1     0.00075302       -66.4244652314 -3.00E-02
     9 Broy./Diag. 0.50E+00    3.0     0.00059538       -66.4312490951 -6.78E-03
    10 Broy./Diag. 0.50E+00    3.0     0.00052249       -66.4288554656  2.39E-03
    11 Broy./Diag. 0.50E+00    3.0     0.00010214       -66.4300495917 -1.19E-03
    12 Broy./Diag. 0.50E+00    3.0     0.00007097       -66.4315051883 -1.46E-03
    13 Broy./Diag. 0.50E+00    3.0     0.00004938       -66.4322096235 -7.04E-04
    14 Broy./Diag. 0.50E+00    3.1     0.00002132       -66.4317294752  4.80E-04
    15 Broy./Diag. 0.50E+00    3.1     0.00000797       -66.4314607859  2.69E-04
    16 Broy./Diag. 0.50E+00    3.0     0.00001382       -66.4314572709  3.51E-06
    17 Broy./Diag. 0.50E+00    3.1     0.00000144       -66.4315070704 -4.98E-05
    18 Broy./Diag. 0.50E+00    3.3     0.00000137       -66.4315205195 -1.34E-05
    19 Broy./Diag. 0.50E+00    3.1     0.00000099       -66.4315185575  1.96E-06

  *** SCF run converged in    19 steps ***


  Electronic density on regular grids:        -56.0000000000       -0.0000000000
  Core density on regular grids:               56.0000000000        0.0000000000
  Total charge density on r-space grids:       -0.0000000000
  Total charge density g-space grids:          -0.0000000000

  Overlap energy of the core charge distribution:               0.00000281534105
  Self energy of the core charge distribution:               -155.91766260956237
  Core Hamiltonian energy:                                     49.77763195663931
  Hartree energy:                                              63.00653208252253
  Exchange-correlation energy:                                -23.29802280244562

  Total energy:                                               -66.43151855750510

   Calculate PDOS at iteration step                                  0
  Reached convergence in            1  iterations 

   Compute          162    additional unoccupied KS orbitals

              ---- PDOS: start iteration on the KS states --- 

 !-----------------------------------------------------------------------------!
                     Mulliken Population Analysis

 #  Atom  Element  Kind  Atomic population                           Net charge
       1     C        1          4.121258                             -0.121258
       2     C        1          4.091218                             -0.091218
       3     C        1          4.121262                             -0.121262
       4     C        1          4.091213                             -0.091213
       5     C        1          4.121256                             -0.121256
       6     C        1          4.121249                             -0.121249
       7     C        1          4.091221                             -0.091221
       8     C        1          4.121253                             -0.121253
       9     C        1          4.091222                             -0.091222
      10     C        1          4.121263                             -0.121263
      11     H        2          0.933916                              0.066084
      12     H        2          0.933917                              0.066083
      13     H        2          0.925127                              0.074873
      14     H        2          0.933923                              0.066077
      15     H        2          0.933916                              0.066084
      16     H        2          0.925137                              0.074863
      17     H        2          0.933917                              0.066083
      18     H        2          0.933925                              0.066075
      19     H        2          0.933928                              0.066072
      20     H        2          0.933916                              0.066084
      21     H        2          0.925128                              0.074872
      22     H        2          0.933918                              0.066082
      23     H        2          0.933925                              0.066075
      24     H        2          0.925133                              0.074867
      25     H        2          0.933932                              0.066068
      26     H        2          0.933927                              0.066073
 # Total charge                             56.000000                 -0.000000

 !-----------------------------------------------------------------------------!

 !-----------------------------------------------------------------------------!
                           Hirshfeld Charges

  #Atom  Element  Kind  Ref Charge     Population                    Net charge
      1       C      1       4.000          4.873                        -0.873
      2       C      1       4.000          4.423                        -0.423
      3       C      1       4.000          4.873                        -0.873
      4       C      1       4.000          4.423                        -0.423
      5       C      1       4.000          4.873                        -0.873
      6       C      1       4.000          4.873                        -0.873
      7       C      1       4.000          4.423                        -0.423
      8       C      1       4.000          4.873                        -0.873
      9       C      1       4.000          4.423                        -0.423
     10       C      1       4.000          4.873                        -0.873
     11       H      2       1.000          0.564                         0.436
     12       H      2       1.000          0.564                         0.436
     13       H      2       1.000          0.567                         0.433
     14       H      2       1.000          0.564                         0.436
     15       H      2       1.000          0.564                         0.436
     16       H      2       1.000          0.567                         0.433
     17       H      2       1.000          0.564                         0.436
     18       H      2       1.000          0.564                         0.436
     19       H      2       1.000          0.564                         0.436
     20       H      2       1.000          0.564                         0.436
     21       H      2       1.000          0.567                         0.433
     22       H      2       1.000          0.564                         0.436
     23       H      2       1.000          0.564                         0.436
     24       H      2       1.000          0.567                         0.433
     25       H      2       1.000          0.564                         0.436
     26       H      2       1.000          0.564                         0.436

  Total Charge                                                            0.034
 !-----------------------------------------------------------------------------!
  
  Eigenvalues of the occupied subspace spin            1
 ---------------------------------------------
      -0.78429252      -0.68725439      -0.68725366      -0.68725222
      -0.59076005      -0.59075892      -0.51400371      -0.51400249
      -0.51400046      -0.46130215      -0.39713463      -0.39392210
      -0.39392107      -0.39391811      -0.35408793      -0.35408741
      -0.35408503      -0.33843742      -0.33843656      -0.33843564
      -0.28169428      -0.28169281      -0.27804502      -0.27804286
      -0.27804165      -0.23669514      -0.23669280      -0.23669123
 Fermi Energy [eV] :   -6.440696
  
  Lowest eigenvalues of the unoccupied subspace spin            1
 ---------------------------------------------
       0.06639602       0.10783648       0.10783869       0.10783939
       0.12142615       0.12142745       0.12142946       0.12676430
       0.12676630       0.13819888       0.17444322       0.17444458
       0.17444584       0.18987696       0.18988117       0.18988343
       0.20423969       0.20424177       0.20424261       0.22245303

 *******************************************************************************
 **                                                                           **
 **         ######## #######   #######   ######## #######  ########           **
 **            ##    ##     ## ##     ## ##       ##   ##     ##              **
 **            ##    ##     ## ##     ## ######   #######     ##              **
 **            ##    ##     ## ##     ## ##       ##          ##              **
 **            ##    #######   #######   ##       ##          ##              **
 **                                                                           **
 *******************************************************************************

 PW_GRID| Information for grid number                                          5
 PW_GRID| Grid distributed over                                    12 processors
 PW_GRID| Real space group dimensions                                    12    1
 PW_GRID| the grid is blocked:                                                NO
 PW_GRID| Cutoff [a.u.]                                                    200.0
 PW_GRID| spherical cutoff:                                                   NO
 PW_GRID|   Bounds   1            -96      95                Points:         192
 PW_GRID|   Bounds   2            -96      95                Points:         192
 PW_GRID|   Bounds   3            -96      95                Points:         192
 PW_GRID| Volume element (a.u.^3)  0.3218E-02     Volume (a.u.^3)     22775.6292
 PW_GRID| Grid span                                                    FULLSPACE
 PW_GRID|   Distribution                         Average         Max         Min
 PW_GRID|   G-Vectors                           589824.0      589824      589824
 PW_GRID|   G-Rays                                3072.0        3072        3072
 PW_GRID|   Real Space Points                   589824.0      589824      589824

 PW_GRID| Information for grid number                                          6
 PW_GRID| Number of the reference grid                                         5
 PW_GRID| Grid distributed over                                    12 processors
 PW_GRID| Real space group dimensions                                    12    1
 PW_GRID| the grid is blocked:                                                NO
 PW_GRID| Cutoff [a.u.]                                                     66.7
 PW_GRID| spherical cutoff:                                                   NO
 PW_GRID|   Bounds   1            -54      53                Points:         108
 PW_GRID|   Bounds   2            -54      53                Points:         108
 PW_GRID|   Bounds   3            -54      53                Points:         108
 PW_GRID| Volume element (a.u.^3)  0.1808E-01     Volume (a.u.^3)     22775.6292
 PW_GRID| Grid span                                                    FULLSPACE
 PW_GRID|   Distribution                         Average         Max         Min
 PW_GRID|   G-Vectors                           104976.0      105300      104760
 PW_GRID|   G-Rays                                 972.0         975         970
 PW_GRID|   Real Space Points                   104976.0      104976      104976

 PW_GRID| Information for grid number                                          7
 PW_GRID| Number of the reference grid                                         5
 PW_GRID| Grid distributed over                                    12 processors
 PW_GRID| Real space group dimensions                                    12    1
 PW_GRID| the grid is blocked:                                                NO
 PW_GRID| Cutoff [a.u.]                                                     22.2
 PW_GRID| spherical cutoff:                                                   NO
 PW_GRID|   Bounds   1            -32      31                Points:          64
 PW_GRID|   Bounds   2            -32      31                Points:          64
 PW_GRID|   Bounds   3            -32      31                Points:          64
 PW_GRID| Volume element (a.u.^3)  0.8688E-01     Volume (a.u.^3)     22775.6292
 PW_GRID| Grid span                                                    FULLSPACE
 PW_GRID|   Distribution                         Average         Max         Min
 PW_GRID|   G-Vectors                            21845.3       21888       21760
 PW_GRID|   G-Rays                                 341.3         342         340
 PW_GRID|   Real Space Points                    21845.3       24576       20480

 PW_GRID| Information for grid number                                          8
 PW_GRID| Number of the reference grid                                         5
 PW_GRID| Grid distributed over                                    12 processors
 PW_GRID| Real space group dimensions                                    12    1
 PW_GRID| the grid is blocked:                                                NO
 PW_GRID| Cutoff [a.u.]                                                      7.4
 PW_GRID| spherical cutoff:                                                   NO
 PW_GRID|   Bounds   1            -18      17                Points:          36
 PW_GRID|   Bounds   2            -18      17                Points:          36
 PW_GRID|   Bounds   3            -18      17                Points:          36
 PW_GRID| Volume element (a.u.^3)  0.4882         Volume (a.u.^3)     22775.6292
 PW_GRID| Grid span                                                    FULLSPACE
 PW_GRID|   Distribution                         Average         Max         Min
 PW_GRID|   G-Vectors                             3888.0        3996        3816
 PW_GRID|   G-Rays                                 108.0         111         106
 PW_GRID|   Real Space Points                     3888.0        3888        3888

 POISSON| Solver                                                         WAVELET
 POISSON| Wavelet| Scaling function                                           40
 POISSON| Periodicity                                                       NONE

 RS_GRID| Information for grid number                                          5
 RS_GRID|   Bounds   1            -96      95                Points:         192
 RS_GRID|   Bounds   2            -96      95                Points:         192
 RS_GRID|   Bounds   3            -96      95                Points:         192
 RS_GRID| Real space distribution over                                  3 groups
 RS_GRID| Real space distribution along direction                              2
 RS_GRID| Border size                                                         30
 RS_GRID| Real space distribution over                                  4 groups
 RS_GRID| Real space distribution along direction                              3
 RS_GRID| Border size                                                         30
 RS_GRID|   Distribution                         Average         Max         Min
 RS_GRID|   Planes                                 124.0         124         124
 RS_GRID|   Distribution                         Average         Max         Min
 RS_GRID|   Planes                                 108.0         108         108

 RS_GRID| Information for grid number                                          6
 RS_GRID|   Bounds   1            -54      53                Points:         108
 RS_GRID|   Bounds   2            -54      53                Points:         108
 RS_GRID|   Bounds   3            -54      53                Points:         108
 RS_GRID| Real space fully replicated
 RS_GRID| Group size                                                           1

 RS_GRID| Information for grid number                                          7
 RS_GRID|   Bounds   1            -32      31                Points:          64
 RS_GRID|   Bounds   2            -32      31                Points:          64
 RS_GRID|   Bounds   3            -32      31                Points:          64
 RS_GRID| Real space fully replicated
 RS_GRID| Group size                                                           1

 RS_GRID| Information for grid number                                          8
 RS_GRID|   Bounds   1            -18      17                Points:          36
 RS_GRID|   Bounds   2            -18      17                Points:          36
 RS_GRID|   Bounds   3            -18      17                Points:          36
 RS_GRID| Real space fully replicated
 RS_GRID| Group size                                                           1
 
 -------------------------------------------------------------------------------
 -                            TDDFPT Initial Guess                             -
 -------------------------------------------------------------------------------
          State         Occupied      ->      Virtual          Excitation
          number         orbital              orbital          energy (eV)
 -------------------------------------------------------------------------------
             1               28                   29              8.24742
             2               27                   29              8.24747
             3               26                   29              8.24753
             4               25                   29              9.37263
             5               24                   29              9.37266
             6               23                   29              9.37272
             7               28                   30              9.37508
             8               27                   30              9.37512
             9               28                   31              9.37514
            10               28                   32              9.37515

      Number of active states:                                       5096
 -------------------------------------------------------------------------------
 
 -------------------------------------------------------------------------------
 -                      TDDFPT WAVEFUNCTION OPTIMIZATION                       -
 -------------------------------------------------------------------------------

          Step            Time         Convergence           Conv. states
 -------------------------------------------------------------------------------

    State    Exc. energy (eV)      Convergence (eV)
        1       8.4385917             1.9117E-01
        2       8.4395666             1.9210E-01
        3       8.4412737             1.9374E-01
        4       9.4047426             3.2117E-02
        5       9.4528263             8.0168E-02
        6       9.4818333             1.0912E-01
        7       9.5105068             1.3543E-01
        8       9.5228270             1.4771E-01
        9       9.5946256             2.1949E-01
       10       9.7217902             3.4664E-01

             1            27.8          1.2739E-02                      0

    State    Exc. energy (eV)      Convergence (eV)
        1       8.3690968            -6.9495E-02
        2       8.3692103            -7.0356E-02
        3       8.3698314            -7.1442E-02
        4       9.3996336            -5.1090E-03
        5       9.4394957            -1.3331E-02
        6       9.4513524            -3.0481E-02
        7       9.4554077            -5.5099E-02
        8       9.4750603            -4.7767E-02
        9       9.5163204            -7.8305E-02
       10       9.5433753            -1.7841E-01

             2            27.0          6.5566E-03                      0

    State    Exc. energy (eV)      Convergence (eV)
        1       8.3673693            -1.7275E-03
        2       8.3673850            -1.8253E-03
        3       8.3675295            -2.3019E-03
        4       9.3955085            -4.1251E-03
        5       9.4240057            -1.5490E-02
        6       9.4433285            -8.0239E-03
        7       9.4529853            -2.4224E-03
        8       9.4551229            -1.9937E-02
        9       9.4596464            -5.6674E-02
       10       9.4760045            -6.7371E-02

             3            26.9          2.4758E-03                      0

    State    Exc. energy (eV)      Convergence (eV)
        1       8.3672179            -1.5141E-04
        2       8.3672604            -1.2457E-04
        3       8.3673282            -2.0125E-04
        4       9.3894040            -6.1045E-03
        5       9.4175658            -6.4399E-03
        6       9.4203962            -2.2932E-02
        7       9.4527964            -1.8890E-04
        8       9.4528599            -2.2629E-03
        9       9.4530330            -6.6134E-03
       10       9.4545373            -2.1467E-02

             4            27.0          8.4275E-04                      0

    State    Exc. energy (eV)      Convergence (eV)
        1       8.3672100            -7.9182E-06
        2       8.3672551            -5.2660E-06
        3       8.3673193            -8.8725E-06
        4       9.3892731            -1.3096E-04
        5       9.4010238            -1.6542E-02
        6       9.4087076            -1.1689E-02
        7       9.4512417            -1.5547E-03
        8       9.4527046            -1.5534E-04
        9       9.4527599            -2.7307E-04
       10       9.4527993            -1.7379E-03

             5            26.9          6.0791E-04                      3

    State    Exc. energy (eV)      Convergence (eV)
        1       8.3672095            -5.0895E-07
        2       8.3672551            -8.1839E-08
        3       8.3673190            -3.3472E-07
        4       9.3892687            -4.3372E-06
        5       9.3924030            -8.6208E-03
        6       9.3987601            -9.9475E-03
        7       9.4510280            -2.1368E-04
        8       9.4526367            -6.7924E-05
        9       9.4527418            -1.8163E-05
       10       9.4527958            -3.5723E-06

             6            26.9          3.6556E-04                      5

    State    Exc. energy (eV)      Convergence (eV)
        1       8.3672094            -1.1825E-08
        2       8.3672551            -2.4618E-09
        3       8.3673190            -9.2477E-09
        4       9.3892685            -1.9320E-07
        5       9.3894446            -2.9584E-03
        6       9.3909493            -7.8108E-03
        7       9.4510242            -3.8348E-06
        8       9.4510998            -1.5368E-03
        9       9.4527258            -1.6004E-05
       10       9.4527513            -4.4430E-05

             7            26.9          2.8704E-04                      5

    State    Exc. energy (eV)      Convergence (eV)
        1       8.3672094            -1.5271E-10
        2       8.3672551            -4.3189E-11
        3       8.3673190            -1.4626E-10
        4       9.3892676            -9.6819E-07
        5       9.3892939            -1.5076E-04
        6       9.3893580            -1.5913E-03
        7       9.4510236            -6.3242E-07
        8       9.4510337            -6.6098E-05
        9       9.4527236            -2.1861E-06
       10       9.4527499            -1.4717E-06

             8            26.9          5.8478E-05                      7

    State    Exc. energy (eV)      Convergence (eV)
        1       8.3672094            -1.3474E-12
        2       8.3672551            -3.1419E-13
        3       8.3673190            -1.2598E-12
        4       9.3892673            -2.6232E-07
        5       9.3892918            -2.1069E-06
        6       9.3893400            -1.8018E-05
        7       9.4510235            -6.6780E-08
        8       9.4510328            -9.0705E-07
        9       9.4527235            -3.3013E-08
       10       9.4527499            -1.9504E-08

             9            26.8          6.6213E-07                      9

    State    Exc. energy (eV)      Convergence (eV)
        1       8.3672094            -7.5527E-15
        2       8.3672551            -4.5316E-15
        3       8.3673190            -3.0211E-15
        4       9.3892673            -3.1866E-09
        5       9.3892917            -2.5412E-08
        6       9.3893398            -1.7473E-07
        7       9.4510235            -5.2143E-10
        8       9.4510328            -6.2678E-09
        9       9.4527235            -2.3549E-10
       10       9.4527499            -1.4189E-10

            10            26.9          6.4211E-09                     10
 ------------------------- Restart Davidson iterations -------------------------

    State    Exc. energy (eV)      Convergence (eV)
        1       8.3672094            -3.0211E-15
        2       8.3672551            -1.5105E-15
        3       8.3673190            -6.0421E-15
        4       9.3892673             4.0784E-14
        5       9.3892917             5.5437E-13
        6       9.3893398            -8.9726E-13
        7       9.4510235             0.0000E+00
        8       9.4510328             3.3534E-13
        9       9.4527235             2.5679E-14
       10       9.4527499             4.5316E-15

            11            26.9          3.2974E-14                     10
 
 -------------------------------------------------------------------------------
 -  TDDFPT run converged in 11 iteration(s) 
 -------------------------------------------------------------------------------

 R-TDDFPT states of multiplicity 1

         State    Excitation        Transition dipole (a.u.)        Oscillator
         number   energy (eV)       x           y           z     strength (a.u.)
         ------------------------------------------------------------------------
 TDDFPT|      1       8.36721   1.4912E-01 -9.5971E-02  1.1008E-01   8.93079E-03
 TDDFPT|      2       8.36726   9.2473E-04 -1.5667E-01 -1.3792E-01   8.93163E-03
 TDDFPT|      3       8.36732   1.4601E-01  9.8969E-02 -1.1154E-01   8.92853E-03
 TDDFPT|      4       9.38927  -6.1625E-05  3.9973E-05 -3.3588E-05   1.50064E-09
 TDDFPT|      5       9.38929  -6.9521E-06  3.7421E-05 -5.3934E-05   1.00238E-09
 TDDFPT|      6       9.38934   2.6979E-05 -1.5347E-05 -3.3754E-05   4.83703E-10
 TDDFPT|      7       9.45102   1.5494E-05  2.3109E-04  1.3203E-04   1.64568E-08
 TDDFPT|      8       9.45103  -6.5963E-05 -7.5158E-05  1.1094E-04   5.16529E-09
 TDDFPT|      9       9.45272  -5.8264E-05  3.9003E-05 -5.2870E-05   1.78583E-09
 TDDFPT|     10       9.45275   1.2756E-04  5.2925E-06 -2.7646E-05   3.95158E-09

 TDDFPT : CheckSum  =  0.105992E+01
 
 -------------------------------------------------------------------------------
 -                            Excitation analysis                              -
 -------------------------------------------------------------------------------
        State             Occupied              Virtual             Excitation
        number             orbital              orbital             amplitude
 -------------------------------------------------------------------------------
             1   8.36721 eV
                                28                   29               0.995358
             2   8.36726 eV
                                27                   29               0.994485
             3   8.36732 eV
                                26                   29               0.994699
             4   9.38927 eV
                                27                   30              -0.584568
                                28                   31              -0.471572
                                28                   32              -0.366959
                                25                   29              -0.305139
                                24                   29               0.259509
                                23                   29               0.247859
                                27                   32              -0.187335
                                28                   30               0.176651
                                26                   30               0.074998
                                27                   31              -0.071511
             5   9.38929 eV
                                26                   30               0.593605
                                28                   32              -0.463052
                                28                   31               0.400160
                                25                   29              -0.359423
                                24                   29              -0.220117
                                23                   29              -0.211027
                                26                   32               0.168768
                                28                   30               0.107547
                                27                   30               0.086512
             6   9.38934 eV
                                26                   31               0.523446
                                27                   32               0.510976
                                23                   29               0.340348
                                27                   31              -0.333966
                                24                   29              -0.326218
                                26                   32               0.317047
                                27                   30              -0.116571
                                26                   30              -0.115191
             7   9.45102 eV
                                27                   30              -0.519498
                                21                   29              -0.463334
                                26                   31              -0.401997
                                27                   32               0.321324
                                28                   31               0.315832
                                28                   32               0.274975
                                22                   29              -0.188958
                                26                   30               0.134196
                                26                   32              -0.103927
                                27                   31              -0.092495
             8   9.45103 eV
                                22                   29               0.463564
                                26                   30              -0.451619
                                28                   32              -0.442095
                                28                   31               0.342836
                                27                   31              -0.324845
                                26                   32              -0.319012
                                21                   29              -0.188872
                                27                   32              -0.099023
                                28                   30              -0.088295
                                26                   31              -0.070036
             9   9.45272 eV
                                25                   29               0.852796
                                28                   32              -0.306343
                                26                   30               0.233178
                                27                   30              -0.204806
                                24                   29              -0.151523
                                28                   34              -0.106922
                                28                   30               0.106281
                                27                   32              -0.100754
                                27                   35               0.069910
                                26                   35              -0.069652
                                26                   32               0.051424
            10   9.45275 eV
                                24                   29               0.824470
                                28                   31               0.292171
                                23                   29               0.218760
                                27                   32               0.177704
                                26                   30               0.168446
                                27                   30               0.165678
[...]
 flops    16 x    32 x    28               344064     100.0%      0.0%      0.0%
 flops    16 x    32 x    36               442368     100.0%      0.0%      0.0%
 flops    16 x    32 x    41               503808     100.0%      0.0%      0.0%
 flops    96 x    50 x    28               537600     100.0%      0.0%      0.0%
 flops    13 x    16 x    13               540800     100.0%      0.0%      0.0%
 flops     5 x    22 x     5               563200     100.0%      0.0%      0.0%
 flops   114 x    50 x    28               638400     100.0%      0.0%      0.0%
 flops    32 x    32 x    28               688128     100.0%      0.0%      0.0%
 flops    96 x    50 x    36               691200     100.0%      0.0%      0.0%
 flops    96 x    50 x    41               787200     100.0%      0.0%      0.0%
 flops   114 x    50 x    36               820800     100.0%      0.0%      0.0%
 flops    32 x    32 x    36               884736     100.0%      0.0%      0.0%
 flops    13 x    22 x     5               915200     100.0%      0.0%      0.0%
 flops     5 x    22 x    13               915200     100.0%      0.0%      0.0%
 flops   114 x    50 x    41               934800     100.0%      0.0%      0.0%
 flops    32 x    32 x    41              1007616     100.0%      0.0%      0.0%
 flops   105 x    32 x    16              1075200     100.0%      0.0%      0.0%
 flops    66 x    32 x    28              1182720     100.0%      0.0%      0.0%
 flops    13 x    22 x    13              1487200     100.0%      0.0%      0.0%
 flops    66 x    32 x    36              1520640     100.0%      0.0%      0.0%
 flops    96 x    32 x    50              1536000     100.0%      0.0%      0.0%
 flops    66 x    32 x    41              1731840     100.0%      0.0%      0.0%
 flops   114 x    32 x    50              1824000     100.0%      0.0%      0.0%
 flops     5 x     5 x    16              2067200     100.0%      0.0%      0.0%
 flops    13 x     5 x    16              3161600     100.0%      0.0%      0.0%
 flops     5 x    13 x    16              3161600     100.0%      0.0%      0.0%
 flops     5 x    32 x    32              3276800     100.0%      0.0%      0.0%
 flops   105 x    32 x    50              3360000     100.0%      0.0%      0.0%
 flops   114 x    32 x    28              4085760     100.0%      0.0%      0.0%
 flops     5 x     1 x     5              4096000     100.0%      0.0%      0.0%
 flops     5 x     5 x    32              4134400     100.0%      0.0%      0.0%
 flops    96 x    32 x    32              4915200     100.0%      0.0%      0.0%
 flops    96 x    32 x    28              5160960     100.0%      0.0%      0.0%
 flops   114 x    32 x    36              5253120     100.0%      0.0%      0.0%
 flops    13 x    32 x    32              5324800     100.0%      0.0%      0.0%
 flops    13 x    13 x    16              5651360     100.0%      0.0%      0.0%
 flops   114 x    32 x    32              5836800     100.0%      0.0%      0.0%
 flops   114 x    32 x    41              5982720     100.0%      0.0%      0.0%
 flops    13 x     5 x    32              6323200     100.0%      0.0%      0.0%
 flops     5 x    13 x    32              6323200     100.0%      0.0%      0.0%
 flops    96 x    32 x    36              6635520     100.0%      0.0%      0.0%
 flops    13 x     1 x     5              6656000     100.0%      0.0%      0.0%
 flops     5 x     1 x    13              6656000     100.0%      0.0%      0.0%
 flops    96 x    32 x    41              7557120     100.0%      0.0%      0.0%
 flops    13 x     1 x    13             10816000     100.0%      0.0%      0.0%
 flops    13 x    13 x    32             11302720     100.0%      0.0%      0.0%
 flops     5 x    32 x     5             12697600     100.0%      0.0%      0.0%
 flops   105 x    32 x    32             12902400     100.0%      0.0%      0.0%
 flops   105 x    33 x    28             20180160     100.0%      0.0%      0.0%
 flops    13 x    32 x     5             20633600     100.0%      0.0%      0.0%
 flops     5 x    32 x    13             20633600     100.0%      0.0%      0.0%
 flops    13 x    32 x    13             33529600     100.0%      0.0%      0.0%
 flops   105 x    36 x    28             44029440     100.0%      0.0%      0.0%
 flops     5 x    28 x     5            168448000     100.0%      0.0%      0.0%
 flops    13 x    28 x     5            273728000     100.0%      0.0%      0.0%
 flops     5 x    28 x    13            273728000     100.0%      0.0%      0.0%
 flops    13 x    28 x    13            444808000     100.0%      0.0%      0.0%
 flops inhomo. stacks                           0       0.0%      0.0%      0.0%
 flops total                         1.478027E+09     100.0%      0.0%      0.0%
 flops max/rank                    623.479824E+06     100.0%      0.0%      0.0%
 matmuls inhomo. stacks                         0       0.0%      0.0%      0.0%
 matmuls total                             574506     100.0%      0.0%      0.0%
 number of processed stacks                 42480     100.0%      0.0%      0.0%
 average stack size                                    13.5       0.0       0.0
 marketing flops                     1.540358E+09
 -------------------------------------------------------------------------------
 # multiplications                            857
 max memory usage/rank             821.825536E+06
 # max total images/rank                        3
 # max 3D layers                                1
 # MPI messages exchanged                   82272
 MPI messages size (bytes):
  total size                         1.464152E+09
  min size                           0.000000E+00
  max size                          45.600000E+03
  average size                      17.796479E+03
 MPI breakdown and total messages size (bytes):
             size <=      128               27483                      160
       128 < size <=     8192                4491                 17960928
      8192 < size <=    32768               34298                894972608
     32768 < size <=   131072               16000                551218080
    131072 < size <=  4194304                   0                        0
   4194304 < size <= 16777216                   0                        0
  16777216 < size                               0                        0
 -------------------------------------------------------------------------------

 *** WARNING in dbcsr_mm.F:294 :: Using a non-square number of MPI ranks ***
 *** might lead to poor performance. Used ranks: 12 Suggested: 9 25      ***

 -------------------------------------------------------------------------------
 -                                                                             -
 -                      DBCSR MESSAGE PASSING PERFORMANCE                      -
 -                                                                             -
 -------------------------------------------------------------------------------
 ROUTINE             CALLS      AVE VOLUME [Bytes]
 MP_Bcast              103                     12.
 MP_Allreduce         2956                      9.
 MP_Alltoall         25828                   4522.
 MP_ISend            20522                   7822.
 MP_IRecv            20372                   7662.
 -------------------------------------------------------------------------------

 -------------------------------------------------------------------------------
 -                                                                             -
 -                                GRID STATISTICS                              -
 -                                                                             -
 -------------------------------------------------------------------------------
 LP    KERNEL             BACKEND                              COUNT     PERCENT
 3     collocate ortho    REF                                 912284      23.29%
 3     integrate ortho    REF                                 898356      22.93%
 2     collocate ortho    REF                                 723644      18.47%
 2     integrate ortho    REF                                 712596      18.19%
 4     collocate ortho    REF                                 337325       8.61%
 4     integrate ortho    REF                                 332175       8.48%
 0     collocate general  REF                                    624       0.02%
 0     integrate general  REF                                    312       0.01%
 -------------------------------------------------------------------------------

 MEMORY| Estimated peak process memory [MiB]                                 784

 -------------------------------------------------------------------------------
 ----                             MULTIGRID INFO                            ----
 -------------------------------------------------------------------------------
 count for grid        1:          83012          cutoff [a.u.]          200.00
 count for grid        2:          39470          cutoff [a.u.]           66.67
 count for grid        3:          25399          cutoff [a.u.]           22.22
 count for grid        4:          20410          cutoff [a.u.]            7.41
 total gridlevel count  :         168291

 -------------------------------------------------------------------------------
 -                                                                             -
 -                         MESSAGE PASSING PERFORMANCE                         -
 -                                                                             -
 -------------------------------------------------------------------------------

 ROUTINE             CALLS      AVE VOLUME [Bytes]
 MP_Group                8
 MP_Bcast              457                 807864.
 MP_Allreduce         9719                    230.
 MP_Sync                51
 MP_Alltoall          3506               23554174.
 MP_ISendRecv         8580                 355840.
 MP_Wait             13721
 MP_comm_split          43
 MP_ISend             4208                1285632.
 MP_IRecv             4352                1243093.
 MP_Recv               105                   8640.
 -------------------------------------------------------------------------------


 -------------------------------------------------------------------------------
 -                                                                             -
 -                           R E F E R E N C E S                               -
 -                                                                             -
 -------------------------------------------------------------------------------
 
 CP2K version 9.0 (Development Version), the CP2K developers group (2020).
 CP2K is freely available from https://www.cp2k.org/ .

 Kuehne,Thomas D.; Iannuzzi,Marcella; Del Ben,Mauro;
 Rybkin,Vladimir V.; Seewald,Patrick; Stein,Frederick; Laino,Teodoro;
 Khaliullin,Rustam Z.; Schuett,Ole; Schiffmann,Florian; Golze,Dorothea;
 Wilhelm,Jan; Chulkov,Sergey; Bani-Hashemian,Mohammad Hossein;
 Weber,Valery; Borstnik,Urban; Taillefumier,Mathieu;
 Jakobovits,Alice Shoshana; Lazzaro,Alfio; Pabst,Hans; Mueller,Tiziano;
 Schade,Robert; Guidon,Manuel; Andermatt,Samuel; Holmberg,Nico;
 Schenter,Gregory K.; Hehn,Anna; Bussy,Augustin; Belleflamme,Fabian;
 Tabacchi,Gloria; Gloess,Andreas; Lass,Michael; Bethune,Iain;
 Mundy,Christopher J.; Plessl,Christian; Watkins,Matt;
 VandeVondele,Joost; Krack,Matthias; Hutter,Juerg. 
 The Journal of Chemical Physics, 152 (19), (2020). 
 CP2K: An electronic structure and molecular dynamics software package -
 Quickstep: Efficient and accurate electronic structure calculations.
 https://doi.org/10.1063/5.0007045

 Schuett, Ole; Messmer, Peter; Hutter, Juerg; VandeVondele, Joost. 
 Electronic Structure Calculations on Graphics Processing Units, John
 Wiley & Sons, Ltd, 173-190 (2016). 
 GPU-Accelerated Sparse Matrix-Matrix Multiplication for
 Linear Scaling Density Functional Theory.
 https://doi.org/10.1002/9781118670712.ch8

 Borstnik, U; VandeVondele, J; Weber, V; Hutter, J. 
 PARALLEL COMPUTING, 40 (5-6), 47-58 (2014). 
 Sparse matrix multiplication: The distributed block-compressed sparse
 row library.
 https://doi.org/10.1016/j.parco.2014.03.012

 Hutter, J; Iannuzzi, M; Schiffmann, F; VandeVondele, J. 
 WIREs Comput Mol Sci., 4 (1), 15-25 (2014). 
 CP2K: atomistic simulations of condensed matter systems.
 https://doi.org/10.1002/wcms.1159

 VandeVondele, J; Hutter, J. 
 JOURNAL OF CHEMICAL PHYSICS, 127 (11), 114105 (2007). 
 Gaussian basis sets for accurate calculations on molecular systems in
 gas and condensed phases.
 https://doi.org/10.1063/1.2770708

 Genovese, L; Deutsch, T; Goedecker, S. 
 JOURNAL OF CHEMICAL PHYSICS, 127 (5), 054704 (2007). 
 Efficient and accurate three-dimensional Poisson solver for surface
 problems.
 https://doi.org/10.1063/1.2754685

 Genovese, L; Deutsch, T; Neelov, A; Goedecker, S; Beylkin, G. 
 JOURNAL OF CHEMICAL PHYSICS, 125 (7), 074105 (2006). 
 Efficient solution of Poisson's equation with free boundary conditions.
 https://doi.org/10.1063/1.2335442

 Krack, M. 
 THEORETICAL CHEMISTRY ACCOUNTS, 114 (1-3), 145-152 (2005). 
 Pseudopotentials for H to Kr optimized for gradient-corrected
 exchange-correlation functionals.
 https://doi.org/10.1007/s00214-005-0655-y

 VandeVondele, J; Krack, M; Mohamed, F; Parrinello, M; Chassaing, T;
 Hutter, J. COMPUTER PHYSICS COMMUNICATIONS, 167 (2), 103-128 (2005). 
 QUICKSTEP: Fast and accurate density functional calculations using a
 mixed Gaussian and plane waves approach.
 https://doi.org/10.1016/j.cpc.2004.12.014

 Frigo, M; Johnson, SG. 
 PROCEEDINGS OF THE IEEE, 93 (2), 216-231 (2005). 
 The design and implementation of FFTW3.
 https://doi.org/10.1109/JPROC.2004.840301

 Iannuzzi, M; Chassaing, T; Wallman, T; Hutter, J. 
 CHIMIA, 59 (7-8), 499-503 (2005). 
 Ground and excited state density functional calculations with the
 Gaussian and augmented-plane-wave method.
 https://doi.org/10.2533/000942905777676164

 VandeVondele, J; Hutter, J. 
 JOURNAL OF CHEMICAL PHYSICS, 118 (10), 4365-4369 (2003). 
 An efficient orbital transformation method for electronic structure
 calculations.
 https://doi.org/10.1063/1.1543154

 Martin,Richard L.. 
 The Journal of Chemical Physics, 118 (11), 4775-4777 (2003). 
 Natural transition orbitals.
 https://doi.org/10.1063/1.1558471

 Hartwigsen, C; Goedecker, S; Hutter, J. 
 PHYSICAL REVIEW B, 58 (7), 3641-3662 (1998). 
 Relativistic separable dual-space Gaussian pseudopotentials from H to Rn.
 https://doi.org/10.1103/PhysRevB.58.3641

 Lippert, G; Hutter, J; Parrinello, M. 
 MOLECULAR PHYSICS, 92 (3), 477-487 (1997). 
 A hybrid Gaussian and plane wave density functional scheme.
 https://doi.org/10.1080/002689797170220

 Perdew, JP; Burke, K; Ernzerhof, M. 
 PHYSICAL REVIEW LETTERS, 77 (18), 3865-3868 (1996). 
 Generalized gradient approximation made simple.
 https://doi.org/10.1103/PhysRevLett.77.3865

 Goedecker, S; Teter, M; Hutter, J. 
 PHYSICAL REVIEW B, 54 (3), 1703-1710 (1996). 
 Separable dual-space Gaussian pseudopotentials.
 https://doi.org/10.1103/PhysRevB.54.1703


 -------------------------------------------------------------------------------
 -                                                                             -
 -                                T I M I N G                                  -
 -                                                                             -
 -------------------------------------------------------------------------------
 SUBROUTINE                       CALLS  ASD         SELF TIME        TOTAL TIME
                                MAXIMUM       AVERAGE  MAXIMUM  AVERAGE  MAXIMUM
 CP2K                                 1  1.0    0.006    0.009  360.537  360.538
 qs_energies                          1  2.0    0.000    0.000  359.843  359.843
 qs_energies_properties               1  3.0    0.000    0.000  299.717  299.717
 tddfpt                               1  4.0    0.000    0.000  299.717  299.717
 tddfpt_davidson_solver               2  5.0    0.001    0.002  297.011  297.011
 tddfpt_compute_Aop_evects           11  6.0    0.000    0.000  296.400  296.400
 fhxc_kernel                         11  7.0    0.003    0.003  296.202  296.202
 pw_transfer                       2704 10.0    0.155    0.173  180.447  181.274
 fft_wrap_pw1pw2                   2704 11.0    0.029    0.030  180.292  181.120
 fft_wrap_pw1pw2_200               1924 11.8    9.177    9.611  176.316  177.867
 fft3d_ps                          2704 13.0  101.709  105.135  147.854  148.635
 tddfpt_apply_xc_analytic           110  8.0    0.392    0.403  101.281  101.435
 qs_rho_update_rho                  131  7.5    0.001    0.001   90.995   90.995
 calculate_rho_elec                 131  8.5    0.383    0.387   90.994   90.994
 integrate_v_rspace                 129  8.1    0.003    0.004   76.187   76.286
 density_rs2pw                      131  9.5    0.006    0.007   65.129   72.089
 xc_calc_2nd_deriv                  110  9.0    3.725    3.773   66.522   66.574
 scf_env_do_scf                       1  3.0    0.000    0.000   58.893   58.895
 scf_env_do_scf_inner_loop           19  4.0    0.001    0.002   58.893   58.895
 grid_collocate_task_list           131  9.5   25.219   58.629   25.219   58.629
 rs_pw_transfer                    1043 10.3    0.015    0.018   48.049   54.941
 tddfpt_apply_coulomb               110  8.0    0.001    0.001   53.086   53.143
 grid_integrate_task_list           129  9.1   21.365   52.788   21.365   52.788
 pw_poisson_solve                   129  8.9    1.094    1.122   50.933   51.028
 rs_pw_transfer_RS2PW_200           133 11.5    2.261    2.471   35.950   42.766
 mp_waitany                        4208 12.3   35.674   42.591   35.674   42.591
 qs_ks_update_qs_env                 19  5.0    0.000    0.000   40.750   40.750
 rebuild_ks_matrix                   19  6.0    0.000    0.000   40.748   40.749
 qs_ks_build_kohn_sham_matrix        19  7.0    0.002    0.003   40.748   40.749
 mp_alltoall_d11v                 11858 10.2   32.616   38.745   32.616   38.745
 rs_gather_matrices                 129  9.1    0.005    0.005   31.454   37.609
 x_to_yz                           1533 13.7   18.346   18.687   29.705   30.902
 mp_alltoall_z22v                  2704 15.0   22.164   27.426   22.164   27.426
 potential_pw2rs                    129  9.1    0.019    0.020   23.364   23.465
 ps_wavelet_solve                   129  9.9   17.300   18.134   21.183   21.242
 yz_to_x                           1171 14.2    5.592    6.645   16.397   19.791
 qs_vxc_create                       19  8.0    0.000    0.000   19.469   19.481
 xc_vxc_pw_create                    19  9.0    0.167    0.175   19.469   19.481
 pw_scatter_p                      1533 12.7   13.283   13.482   13.283   13.482
 xc_rho_set_and_dset_create          20  9.8    0.071    0.072   11.931   12.245
 sum_up_and_integrate                19  8.0    0.032    0.033   11.285   11.286
 pw_gather_p                       1171 13.2    9.749   10.987    9.749   10.987
 mp_alltoall_d54                    129 10.9    1.968   10.153    1.968   10.153
 -------------------------------------------------------------------------------

 The number of warnings for this run is : 2
 
 -------------------------------------------------------------------------------
  **** **** ******  **  PROGRAM ENDED AT                 2021-05-27 03:11:54.734
 ***** ** ***  *** **   PROGRAM RAN ON            cpn-p27-16.compute.cbls.ccr.bu
 **    ****   ******    PROGRAM RAN BY                                  alexeyak
 ***** **    ** ** **   PROGRAM PROCESS ID                                 28989
  **** **  *******  **  PROGRAM STOPPED IN /projects/academic/cyberwksp21/Instru
                                           ctors_material/alexeyak/cp2k/tddft
