      61
 i =        0, time =        0.000, E =      -347.9541264823
 Li         7.5000141947        7.5000070476        7.5000018362
  C         9.2077818284       10.0174799027        9.3745664108
  C         8.3295992706       10.8174857312        8.5295856150
  C         6.9722203760       10.6824479920        9.0346467327
  C         7.0075879338        9.8012771862       10.1854888108
  C         8.3856295793        9.3862178011       10.3984521720
  C        10.9748098564        8.0763228598        6.9259254803
  C        10.5181540399        9.3853628021        7.3701923195
  C        10.2775970413        9.3182559918        8.8062202904
  C        10.5763359927        7.9591489086        9.2400788155
  C        11.0101257955        7.1979302341        8.0747274058
  C         7.8699394503       10.0578372566        5.0436285934
  C         7.4445857156       10.8073910504        6.2137424440
  C         8.5631994949       10.8822111753        7.1498827908
  C         9.6741902192       10.1538141145        6.5604108846
  C         9.2399270591        9.6456754790        5.2606033402
  C         4.3767962051        9.1511769586        7.0537507290
  C         4.8235574601        9.6529380622        8.3488759457
  C         5.8961151180       10.6139262261        8.1301347253
  C         6.1392955076       10.6744326021        6.7013648770
  C         5.1964886835        9.7734925117        6.0372619643
  C         5.3223656945        6.6196509920       10.1635177099
  C         6.2649441017        7.5238707643       10.8246184604
  C         5.9695780963        8.8762918356       10.3926538373
  C         4.8509003292        8.8070062321        9.4613870389
  C         4.4474243301        7.4124195461        9.3282807860
  C         9.3887655954        5.9558391279       10.0891303025
  C         9.7871509475        7.3556089851       10.2246705921
  C         8.6739634652        8.0810488369       10.8153648604
  C         7.5909466207        7.1255025170       11.0323253366
  C         8.0409608685        5.8150996389       10.5955295815
  C         7.9924121646        5.1987230629        4.8144864581
  C         6.6143692769        5.6137881536        4.6015272633
  C         5.7922213442        4.9825380749        5.6254252448
  C         6.6704016621        4.1825326244        6.4704074876
  C         8.0277785435        4.3175590672        5.9653367438
  C         9.6776270487        8.3803603652        4.8364817747
  C         8.7350492990        7.4761407896        4.1753769599
  C         9.0304185452        6.1237194529        4.6073333341
  C        10.1490970379        6.1930090152        5.5386016324
  C        10.5525858908        7.5875942170        5.6717030744
  C         5.6112364169        9.0441696356        4.9108646906
  C         5.2128486634        7.6444008848        4.7753229218
  C         6.3260383699        6.9189634986        4.1846361047
  C         7.4090497209        7.8745111545        3.9676746634
  C         6.9590352825        9.1849175637        4.4044565059
  C         4.0252123829        6.9236922838        8.0740601576
  C         4.4818455541        5.6146460452        7.6297971455
  C         4.7224057190        5.6817559848        6.1937711412
  C         4.4236738122        7.0408643023        5.7599199238
  C         3.9898742045        7.8020843184        6.9252628220
  C         7.1300570490        4.9421863102        9.9563487123
  C         7.5554107295        4.1926168010        8.7862451643
  C         6.4367929728        4.1177888247        7.8501078419
  C         5.3258032418        4.8461914660        8.4395813119
  C         5.7600608899        5.3543308557        9.7393921624
  C        10.6231945204        5.8488393268        7.9462409509
  C        10.1764318284        5.3470792498        6.6511150438
  C         9.1038855213        4.3860761688        6.8698520600
  C         8.8607058158        4.3255694349        8.2986250622
  C         9.8035186473        5.2265051929        8.9627349856
      61
 i =        1, time =        1.000, E =      -347.9516624930
 Li         7.5095451751        7.4942761246        7.4981443646
  C         9.2102488830       10.0154994313        9.3720370696
  C         8.3277863390       10.8141465904        8.5247379082
  C         6.9815899849       10.6753814332        9.0376741607
  C         7.0163321503        9.7977382555       10.1863443029
  C         8.3885985309        9.3829669859       10.4043248895
  C        10.9749903033        8.0730983615        6.9296828358
  C        10.5109338320        9.3799397387        7.3664637645
  C        10.2721622866        9.3226521225        8.8016000712
  C        10.5751781795        7.9685850291        9.2367147254
  C        11.0083828336        7.2056804107        8.0713340493
  C         7.8734008437       10.0561812822        5.0493315199
  C         7.4446993780       10.8089043187        6.2079661721
  C         8.5598871712       10.8809728988        7.1538368167
  C         9.6735065527       10.1620054011        6.5603677326
  C         9.2490424835        9.6484893022        5.2618203260
  C         4.3767593769        9.1443972360        7.0587123035
  C         4.8222315052        9.6548785424        8.3503129835
  C         5.8988697585       10.6136889312        8.1289201721
  C         6.1362564850       10.6783235741        6.7033853700
  C         5.1993507730        9.7729259257        6.0467401411
  C         5.3172007085        6.6198557466       10.1611292918
  C         6.2718369567        7.5239878917       10.8215171589
  C         5.9566193216        8.8750928510       10.3928917156
  C         4.8462012385        8.8107248560        9.4581582040
  C         4.4546523098        7.4170918520        9.3340538884
  C         9.3911777257        5.9487968870       10.0910164040
  C         9.7886697049        7.3559099959       10.2243523780
  C         8.6661640713        8.0799283607       10.8177264755
  C         7.5850383689        7.1257436396       11.0304415470
  C         8.0405697587        5.8211091009       10.5992497990
  C         7.9891986013        5.2016044800        4.8191033775
  C         6.6239467729        5.6190572060        4.6071057458
  C         5.7939708077        4.9782648924        5.6217739997
  C         6.6792388254        4.1860855416        6.4669814480
  C         8.0219714475        4.3127868168        5.9658493320
  C         9.6695498834        8.3841206827        4.8341850183
  C         8.7328634675        7.4844757345        4.1777377040
  C         9.0305817926        6.1223338824        4.6070488876
  C        10.1419625223        6.1927772772        5.5389366749
  C        10.5531666378        7.5882010398        5.6639640242
  C         5.6089244095        9.0391308991        4.9080366884
  C         5.2104153998        7.6421915038        4.7732780837
  C         6.3273354891        6.9160749095        4.1840709663
  C         7.4013377021        7.8667269224        3.9667925901
  C         6.9577824527        9.1824336401        4.3998711092
  C         4.0279680398        6.9248901348        8.0641488521
  C         4.4843583737        5.6215182326        7.6293916652
  C         4.7153900015        5.6805979072        6.1917023131
  C         4.4269438051        7.0385125493        5.7611707550
  C         3.9923724123        7.8017349240        6.9247047460
  C         7.1353683731        4.9375567033        9.9612000533
  C         7.5578920198        4.2025954921        8.7905498881
  C         6.4371775239        4.1184524183        7.8508380767
  C         5.3186767632        4.8449911924        8.4312926479
  C         5.7562093696        5.3498834851        9.7379819817
  C        10.6286603067        5.8478267277        7.9433400456
  C        10.1846726471        5.3448639232        6.6570720983
  C         9.1048835404        4.3858173491        6.8759491581
  C         8.8621757935        4.3237027548        8.2965218229
  C         9.8011378553        5.2297231634        8.9673377141
      61
 i =        2, time =        2.000, E =      -347.9442559988
 Li         7.5189771884        7.4886000788        7.4963086246
  C         9.2122790706       10.0134409838        9.3695514082
  C         8.3260883272       10.8102952972        8.5202569641
  C         6.9906157471       10.6677883958        9.0404100474
  C         7.0246307239        9.7939182284       10.1868524921
  C         8.3915320727        9.3798915031       10.4094978573
  C        10.9752239944        8.0700024362        6.9329850374
  C        10.5032573978        9.3746659157        7.3628528024
  C        10.2666199140        9.3267536011        8.7969380052
  C        10.5734146719        7.9776734685        9.2333819885
  C        11.0069992804        7.2131088608        8.0681109138
  C         7.8766998631       10.0541255111        5.0550466998
  C         7.4447620384       10.8099311506        6.2025435293
  C         8.5565229883       10.8794309566        7.1573271849
  C         9.6727737968       10.1695914769        6.5603880742
  C         9.2577238506        9.6514059534        5.2631224253
  C         4.3774595835        9.1379537639        7.0635910905
  C         4.8212214434        9.6568331916        8.3515008274
  C         5.9017015143       10.6127051896        8.1279246410
  C         6.1333994840       10.6815157120        6.7053194077
  C         5.2023043543        9.7720566004        6.0559316806
  C         5.3125359144        6.6200849834       10.1585757016
  C         6.2780802975        7.5241362310       10.8179464339
  C         5.9443091877        8.8740771817       10.3927584247
  C         4.8420811325        8.8142377403        9.4551793482
  C         4.4619939058        7.4215039788        9.3391170278
  C         9.3933744798        5.9422599023       10.0928645268
  C         9.7898536638        7.3562791294       10.2236691966
  C         8.6587057631        8.0785650097       10.8196051976
  C         7.5795478338        7.1260489090       11.0290305688
  C         8.0401896000        5.8268645226       10.6022406043
  C         7.9861803907        5.2045877813        4.8240268438
  C         6.6331131231        5.6241268002        4.6131053588
  C         5.7957836465        4.9744287641        5.6183406269
  C         6.6876289823        4.1899937566        6.4638652230
  C         8.0166527316        4.3088448481        5.9664838502
  C         9.6617080421        8.3875935058        4.8323273213
  C         8.7305297262        7.4923995794        4.1804007971
  C         9.0307433362        6.1211803118        4.6072142853
  C        10.1346682703        6.1926527866        5.5393975501
  C        10.5531506582        7.5887832115        5.6565783694
  C         5.6067793578        9.0343452462        4.9056770168
  C         5.2082945922        7.6399352023        4.7716038665
  C         6.3285434780        6.9133746024        4.1839178082
  C         7.3939521343        7.8592588842        3.9655210872
  C         6.9565492224        9.1799313974        4.3960729762
  C         4.0305878018        6.9262448634        8.0549291759
  C         4.4872654166        5.6283464159        7.6287215190
  C         4.7090578250        5.6794277511        6.1896129586
  C         4.4306485264        7.0362400937        5.7624668817
  C         3.9944655330        7.8012198100        6.9241031660
  C         7.1403577279        4.9334773606        9.9657193220
  C         7.5602318922        4.2127825454        8.7945407275
  C         6.4377185548        4.1195232045        7.8515353236
  C         5.3121425116        4.8440712150        8.4234097612
  C         5.7524596072        5.3455929431        9.7364285580
  C        10.6334308238        5.8470128119        7.9407281878
  C        10.1923352835        5.3427012022        6.6628326837
  C         9.1057353151        4.3862739873        6.8817613122
  C         8.8636411445        4.3225711733        8.2946252459
  C         9.7987721113        5.2328273214        8.9713989156
      61
 i =        3, time =        3.000, E =      -347.9339319436
 Li         7.5283880323        7.4829274506        7.4944818497
  C         9.2137352117       10.0113865888        9.3671895967
  C         8.3246034844       10.8058517638        8.5163735478
  C         6.9990723148       10.6596707862        9.0427292012
  C         7.0321484455        9.7896835959       10.1870526335
  C         8.3944663942        9.3770784014       10.4139021892
  C        10.9753850039        8.0671709285        6.9354231568
  C        10.4950970161        9.3696968559        7.3593368994
  C        10.2610677387        9.3304818132        8.7921778779
  C        10.5709753063        7.9862429121        9.2302042000
  C        11.0059381584        7.2199515948        8.0652042439
  C         7.8797430125       10.0515559606        5.0605959158
  C         7.4447104383       10.8104939487        6.1976293324
  C         8.5531094134       10.8776107823        7.1600654877
  C         9.6721392131       10.1764711751        6.5605082033
  C         9.2657632872        9.6545748957        5.2644746568
  C         4.3789896385        9.1320495034        7.0683726681
  C         4.8205190889        9.6588536424        8.3523624015
  C         5.9046615146       10.6109651053        8.1273270194
  C         6.1308285679       10.6840021129        6.7071075700
  C         5.2053270285        9.7706757881        6.0645865068
  C         5.3086152349        6.6201849103       10.1559392724
  C         6.2831479493        7.5243935029       10.8137850387
  C         5.9330933681        8.8734263157       10.3923530772
  C         4.8385718432        8.8174882146        9.4526329995
  C         4.4691402205        7.4255452428        9.3429928582
  C         9.3953147090        5.9365228611       10.0948459592
  C         9.7906611771        7.3567717552       10.2226042317
  C         8.6518282481        8.0768548998       10.8209674154
  C         7.5747413128        7.1264032548       11.0281395979
  C         8.0398061551        5.8321491098       10.6044624908
  C         7.9835878586        5.2076481889        4.8292722891
  C         6.6416107278        5.6289217384        4.6195370517
  C         5.7975307356        4.9711717119        5.6151838697
  C         6.6952622408        4.1941938135        6.4613200508
  C         8.0122561223        4.3058087903        5.9672570074
  C         9.6543170872        8.3907589933        4.8310036306
  C         8.7278891594        7.4996315522        4.1833132394
  C         9.0308170894        6.1203884090        4.6078146003
  C        10.1273755953        6.1926687533        5.5400984879
  C        10.5525353873        7.5892885762        5.6496792712
  C         5.6048061114        9.0300011817        4.9039898746
  C         5.2064930376        7.6375646233        4.7702819770
  C         6.3295379049        6.9108474430        4.1841797204
  C         7.3871001890        7.8523526579        3.9638447435
  C         6.9553466526        9.1774256845        4.3931394537
  C         4.0331586963        6.9278507277        8.0468902593
  C         4.4904650464        5.6350849947        7.6276006418
  C         4.7036313163        5.6780974387        6.1873905513
  C         4.4347387210        7.0340871301        5.7637130054
  C         3.9961639932        7.8004793316        6.9233705155
  C         7.1448279390        4.9300992576        9.9699732415
  C         7.5623647866        4.2230879480        8.7980698705
  C         6.4384658187        4.1210683563        7.8521083766
  C         5.3064118873        4.8433554780        8.4161789635
  C         5.7487954399        5.3415214822        9.7347086206
  C        10.6375485394        5.8465584967        7.9386445246
  C        10.1992981357        5.3405934584        6.6681862621
  C         9.1063994692        4.3874176599        6.8871306422
  C         8.8651274395        4.3222511700        8.2931129529
  C         9.7965487970        5.2356891580        8.9746551015
      61
 i =        4, time =        4.000, E =      -347.9238730067
 Li         7.5377562991        7.4772670558        7.4926700681
  C         9.2144759066       10.0094373771        9.3650524187
  C         8.3234354568       10.8007931672        8.5133170717
  C         7.0066558333       10.6511134549        9.0444919978
  C         7.0385237280        9.7849747623       10.1869791929
  C         8.3973970218        9.3746237882       10.4174403298
  C        10.9753553654        8.0647670898        6.9366077578
  C        10.4865258018        9.3652160611        7.3559362289
  C        10.2556566333        9.3337185906        8.7873155303
  C        10.5678327082        7.9940460605        9.2273098404
  C        11.0051787312        7.2258999299        8.0627862109
  C         7.8824195700       10.0484012233        5.0657568370
  C         7.4444834382       10.8106039599        6.1934251773
  C         8.5496862544       10.8755540672        7.1617782616
  C         9.6717269067       10.1824886615        6.5607477920
  C         9.2728870180        9.6580882647        5.2658205103
  C         4.3814089865        9.1269166361        7.0729855978
  C         4.8201225990        9.6609503393        8.3528368690
  C         5.9077688599       10.6084800643        8.1272860969
  C         6.1286702921       10.6857463623        6.7086781094
  C         5.2083624013        9.7686234226        6.0724012175
  C         5.3056885528        6.6200188799       10.1533197159
  C         6.2865327901        7.5248191512       10.8089755467
  C         5.9234802284        8.8732894074       10.3917765653
  C         4.8357308230        8.8204026492        9.4506952162
  C         4.4757475477        7.4290868572        9.3452390491
  C         9.3969426475        5.9319013548       10.0970870450
  C         9.7910394121        7.3574261251       10.2211585381
  C         8.6458214692        8.0747422996       10.8217713915
  C         7.5708892878        7.1267931689       11.0278186946
  C         8.0394170723        5.8367153867       10.6058619855
  C         7.9816701489        5.2107349731        4.8347949395
  C         6.6490996090        5.6333280309        4.6263362434
  C         5.7990966373        4.9686419292        5.6123915900
  C         6.7017624157        4.1985837945        6.4596104829
  C         8.0092291575        4.3037794308        5.9681740349
  C         9.6476487935        8.3935741752        4.8303093434
  C         8.7248217618        7.5058497179        4.1863937023
  C         9.0307157054        6.1200721158        4.6088321215
  C        10.1203205169        6.1928535948        5.5411389931
  C        10.5513222175        7.5896629704        5.6434616000
  C         5.6030406779        9.0262969248        4.9031580431
  C         5.2050434595        7.6350558479        4.7693087618
  C         6.3301948601        6.9084993159        4.1848547554
  C         7.3810434439        7.8463040495        3.9617693626
  C         6.9541893789        9.1749502405        4.3911698315
  C         4.0357234102        6.9297607926        8.0405169763
  C         4.4938417267        5.6416042617        7.6258821369
  C         4.6993535995        5.6765043935        6.1849698259
  C         4.4391199273        7.0321081282        5.7648167048
  C         3.9974632730        7.7994877974        6.9224355407
  C         7.1485514836        4.9275957708        9.9739779318
  C         7.5642200997        4.2333166045        8.8009530574
  C         6.4394607588        4.1231407080        7.8524739096
  C         5.3017266373        4.8427897157        8.4098869619
  C         5.7452430692        5.3377667563        9.7328280399
  C        10.6410103041        5.8466103395        7.9373195891
  C        10.2053770441        5.3385742715        6.6728818359
  C         9.1068392349        4.3892105878        6.8918589419
  C         8.8666267302        4.3228166448        8.2921677495
  C         9.7946092119        5.2381700512        8.9768511070
      61
 i =        5, time =        5.000, E =      -347.9144670904
 Li         7.5467390258        7.4718228340        7.4909409184
  C         9.2143837947       10.0077453721        9.3632964557
  C         8.3226993528       10.7953074662        8.5113319457
  C         7.0128544536       10.6425054052        9.0455358678
  C         7.0432823635        9.7799418734       10.1866740704
  C         8.4002034909        9.3726684898       10.4199437911
  C        10.9750387016        8.0630067777        6.9362265005
  C        10.4779452915        9.3615087507        7.3527902712
  C        10.2507030066        9.3362578924        8.7825281269
  C        10.5641116380        8.0006130414        9.2248813634
  C        11.0047219689        7.2305225438        8.0610738124
  C         7.8845531441       10.0447434022        5.0701676128
  C         7.4440400434       10.8102733128        6.1902332956
  C         8.5464150947       10.8733762625        7.1622358852
  C         9.6716271102       10.1873379040        6.5610948781
  C         9.2786356112        9.6618688839        5.2670482452
  C         4.3846409990        9.1228908792        7.0771952853
  C         4.8200339411        9.6630362107        8.3528962721
  C         5.9109242763       10.6053763359        8.1279025642
  C         6.1271006764       10.6866729265        6.7099254973
  C         5.2112530992        9.7658756481        6.0788757726
  C         5.3040204463        6.6194952784       10.1508823151
  C         6.2877877198        7.5254271108       10.8036794319
  C         5.9161798087        8.8737572155       10.3911457159
  C         4.8336785266        8.8228383677        9.4495432036
  C         4.4813192282        7.4319177637        9.3454868978
  C         9.3981707096        5.9287733373       10.0995828060
  C         9.7909350961        7.3582387814       10.2194063662
  C         8.6411239261        8.0722965907       10.8219710952
  C         7.5682840450        7.1271967034       11.0280989540
  C         8.0390414616        5.8402236414       10.6063804943
  C         7.9806903756        5.2136942818        4.8403459032
  C         6.6550447297        5.6371074870        4.6331848733
  C         5.8003520535        4.9670150856        5.6101328659
  C         6.7066133103        4.2029152484        6.4589870395
  C         8.0080084386        4.3028837762        5.9692049370
  C         9.6421438029        8.3959215438        4.8303248832
  C         8.7213559283        7.5105997633        4.1894576542
  C         9.0303682797        6.1203173243        4.6102042663
  C        10.1139604806        6.1932174176        5.5425571998
  C        10.5495732398        7.5898530298        5.6382946689
  C         5.6015809166        9.0234915474        4.9033206378
  C         5.2040221861        7.6324995389        4.7687022840
  C         6.3303986573        6.9064102127        4.1859016613
  C         7.3761884796        7.8415554730        3.9593890976
  C         6.9531245294        9.1726161826        4.3902866093
  C         4.0382196834        6.9319261057        8.0363479699
  C         4.4971845438        5.6475440501        7.6235417845
  C         4.6965313378        5.6746477003        6.1824018602
  C         4.4435354133        7.0304073237        5.7656722378
  C         3.9983307578        7.7982923365        6.9212837730
  C         7.1512189577        4.9261699154        9.9776031688
  C         7.5656900268        4.2429382939        8.8029454692
  C         6.4406962902        4.1257025485        7.8525629874
  C         5.2984120645        4.8423562183        8.4049548249
  C         5.7419563924        5.3345368265        9.7308772686
  C        10.6437085764        5.8472636941        7.9369589177
  C        10.2102262119        5.3367531216        6.6765603236
  C         9.1070269996        4.3915365582        6.8956333086
  C         8.8680635203        4.3242825155        8.2919596437
  C         9.7931347317        5.2400959594        8.9777615678
      61
 i =        6, time =        6.000, E =      -347.9094742573
 Li         7.5559443863        7.4662239369        7.4891780180
  C         9.2133977899       10.0062550039        9.3618654526
  C         8.3223933876       10.7890429413        8.5103409431
  C         7.0178867152       10.6333303076        9.0458559212
  C         7.0465800227        9.7742497098       10.1861489632
  C         8.4030421878        9.3711007893       10.4215623110
  C        10.9743293402        8.0618703058        6.9340808260
  C        10.4688825245        9.3584028129        7.3497072941
  C        10.2459630546        9.3381941066        8.7775075228
  C        10.5595892155        8.0062263434        9.2227906880
  C        11.0045141195        7.2339874677        8.0600408070
  C         7.8862216179       10.0403290386        5.0739858356
  C         7.4433088809       10.8094809707        6.1879585161
  C         8.5431138807       10.8709616607        7.1613869823
  C         9.6718613214       10.1912922830        6.5615482974
  C         9.2832334599        9.6661783896        5.2681686306
  C         4.3888920741        9.1197893499        7.0812086618
  C         4.8202391279        9.6652176541        8.3525749179
  C         5.9143471528       10.6014807056        8.1292678517
  C         6.1260969208       10.6868249153        6.7109043927
  C         5.2141575379        9.7621932877        6.0842815400
  C         5.3035926723        6.6185219404       10.1484953895
  C         6.2868276482        7.5262535065       10.7975613616
  C         5.9109699408        8.8749008101       10.3904957696
  C         4.8322821476        8.8249443907        9.4491541053
  C         4.4860453548        7.4341653836        9.3435697974
  C         9.3990721661        5.9270670758       10.1025174213
  C         9.7902982905        7.3592703760       10.2172609263
  C         8.6376031745        8.0693859358       10.8215644580
  C         7.5668011916        7.1276414333       11.0290030024
  C         8.0386640378        5.8427898991       10.6060620224
  C         7.9807288827        5.2166928457        4.8462515404
  C         6.6596361356        5.6404524030        4.6404727254
  C         5.8013450663        4.9662278327        5.6083224465
  C         6.7099381728        4.2074092515        6.4595364114
  C         8.0087388024        4.3031053563        5.9704335368
  C         9.6375789564        8.3979541579        4.8310874983
  C         8.7172136550        7.5140309261        4.1926569949
  C         9.0296879896        6.1211949684        4.6120057228
  C        10.1080403689        6.1937945252        5.5445059638
  C        10.5471851265        7.5898458826        5.6339538058
  C         5.6003678342        9.0214686692        4.9045553141
  C         5.2033894869        7.6297486506        4.7684057993
  C         6.3300984132        6.9044365746        4.1873732395
  C         7.3723428035        7.8379655082        3.9565662357
  C         6.9520821972        9.1702810079        4.3904703469
  C         4.0408355313        6.9344899144        8.0342893364
  C         4.5006648657        5.6531721087        7.6203877235
  C         4.6950774240        5.6723852210        6.1795024305
  C         4.4481874708        7.0288872554        5.7662954554
  C         3.9988457569        7.7968533345        6.9198147383
  C         7.1528604220        4.9258030615        9.9810823288
  C         7.5668503923        4.2524723682        8.8040711369
  C         6.4422782624        4.1289662568        7.8523483468
  C         5.2963492083        4.8420159988        8.4011808417
  C         5.7387509690        5.3316763334        9.7287614689
  C        10.6458319729        5.8486214148        7.9376413996
  C        10.2140721691        5.3350549228        6.6793253767
  C         9.1069812222        4.3945111515        6.8986021486
  C         8.8695005158        4.3267745778        8.2925731776
  C         9.7921130947        5.2415634441        8.9773896683
      61
 i =        7, time =        7.000, E =      -347.9088620700
 Li         7.5654170325        7.4604414054        7.4873737355
  C         9.2114807874       10.0049988992        9.3608080257
  C         8.3225456153       10.7819971915        8.5103384901
  C         7.0215790810       10.6235991686        9.0453833752
  C         7.0483019799        9.7678920769       10.1854243529
  C         8.4058675570        9.3699135785       10.4222828757
  C        10.9731432574        8.0614321533        6.9300543962
  C        10.4594237920        9.3559350866        7.3467049063
  C        10.2414851269        9.3394559745        8.7722662414
  C        10.5542793401        8.0107428307        9.2210309735
  C        11.0045394172        7.2362112061        8.0597417449
  C         7.8873606054       10.0351493719        5.0771035704
  C         7.4422491625       10.8081961977        6.1867018689
  C         8.5398133386       10.8683192862        7.1592080897
  C         9.6724161296       10.1943272454        6.5620607334
  C         9.2865417190        9.6710057165        5.2690983212
  C         4.3941609262        9.1176501009        7.0849429432
  C         4.8207403747        9.6674450439        8.3519375379
  C         5.9180530699       10.5968028144        8.1314012907
  C         6.1257372006       10.6861564311        6.7116020334
  C         5.2170631193        9.7575355620        6.0884929757
  C         5.3044578803        6.6170746401       10.1461436656
  C         6.2835933999        7.5272624396       10.7906464060
  C         5.9080623905        8.8767346340       10.3898823851
  C         4.8315469239        8.8267250264        9.4495502066