      61
 i =        4, time =        4.000, E =      -347.9238730067
 Li         7.5377562991        7.4772670558        7.4926700681
  C         9.2144759066       10.0094373771        9.3650524187
  C         8.3234354568       10.8007931672        8.5133170717
  C         7.0066558333       10.6511134549        9.0444919978
  C         7.0385237280        9.7849747623       10.1869791929
  C         8.3973970218        9.3746237882       10.4174403298
  C        10.9753553654        8.0647670898        6.9366077578
  C        10.4865258018        9.3652160611        7.3559362289
  C        10.2556566333        9.3337185906        8.7873155303
  C        10.5678327082        7.9940460605        9.2273098404
  C        11.0051787312        7.2258999299        8.0627862109
  C         7.8824195700       10.0484012233        5.0657568370
  C         7.4444834382       10.8106039599        6.1934251773
  C         8.5496862544       10.8755540672        7.1617782616
  C         9.6717269067       10.1824886615        6.5607477920
  C         9.2728870180        9.6580882647        5.2658205103
  C         4.3814089865        9.1269166361        7.0729855978
  C         4.8201225990        9.6609503393        8.3528368690
  C         5.9077688599       10.6084800643        8.1272860969
  C         6.1286702921       10.6857463623        6.7086781094
  C         5.2083624013        9.7686234226        6.0724012175
  C         5.3056885528        6.6200188799       10.1533197159
  C         6.2865327901        7.5248191512       10.8089755467
  C         5.9234802284        8.8732894074       10.3917765653
  C         4.8357308230        8.8204026492        9.4506952162
  C         4.4757475477        7.4290868572        9.3452390491
  C         9.3969426475        5.9319013548       10.0970870450
  C         9.7910394121        7.3574261251       10.2211585381
  C         8.6458214692        8.0747422996       10.8217713915
  C         7.5708892878        7.1267931689       11.0278186946
  C         8.0394170723        5.8367153867       10.6058619855
  C         7.9816701489        5.2107349731        4.8347949395
  C         6.6490996090        5.6333280309        4.6263362434
  C         5.7990966373        4.9686419292        5.6123915900
  C         6.7017624157        4.1985837945        6.4596104829
  C         8.0092291575        4.3037794308        5.9681740349
  C         9.6476487935        8.3935741752        4.8303093434
  C         8.7248217618        7.5058497179        4.1863937023
  C         9.0307157054        6.1200721158        4.6088321215
  C        10.1203205169        6.1928535948        5.5411389931
  C        10.5513222175        7.5896629704        5.6434616000
  C         5.6030406779        9.0262969248        4.9031580431
  C         5.2050434595        7.6350558479        4.7693087618
  C         6.3301948601        6.9084993159        4.1848547554
  C         7.3810434439        7.8463040495        3.9617693626
  C         6.9541893789        9.1749502405        4.3911698315
  C         4.0357234102        6.9297607926        8.0405169763
  C         4.4938417267        5.6416042617        7.6258821369
  C         4.6993535995        5.6765043935        6.1849698259
  C         4.4391199273        7.0321081282        5.7648167048
  C         3.9974632730        7.7994877974        6.9224355407
  C         7.1485514836        4.9275957708        9.9739779318
  C         7.5642200997        4.2333166045        8.8009530574
  C         6.4394607588        4.1231407080        7.8524739096
  C         5.3017266373        4.8427897157        8.4098869619
  C         5.7452430692        5.3377667563        9.7328280399
  C        10.6410103041        5.8466103395        7.9373195891
  C        10.2053770441        5.3385742715        6.6728818359
  C         9.1068392349        4.3892105878        6.8918589419
  C         8.8666267302        4.3228166448        8.2921677495
  C         9.7946092119        5.2381700512        8.9768511070
