      61
 i =        3, time =        3.000, E =      -347.9339319436
 Li         7.5283880323        7.4829274506        7.4944818497
  C         9.2137352117       10.0113865888        9.3671895967
  C         8.3246034844       10.8058517638        8.5163735478
  C         6.9990723148       10.6596707862        9.0427292012
  C         7.0321484455        9.7896835959       10.1870526335
  C         8.3944663942        9.3770784014       10.4139021892
  C        10.9753850039        8.0671709285        6.9354231568
  C        10.4950970161        9.3696968559        7.3593368994
  C        10.2610677387        9.3304818132        8.7921778779
  C        10.5709753063        7.9862429121        9.2302042000
  C        11.0059381584        7.2199515948        8.0652042439
  C         7.8797430125       10.0515559606        5.0605959158
  C         7.4447104383       10.8104939487        6.1976293324
  C         8.5531094134       10.8776107823        7.1600654877
  C         9.6721392131       10.1764711751        6.5605082033
  C         9.2657632872        9.6545748957        5.2644746568
  C         4.3789896385        9.1320495034        7.0683726681
  C         4.8205190889        9.6588536424        8.3523624015
  C         5.9046615146       10.6109651053        8.1273270194
  C         6.1308285679       10.6840021129        6.7071075700
  C         5.2053270285        9.7706757881        6.0645865068
  C         5.3086152349        6.6201849103       10.1559392724
  C         6.2831479493        7.5243935029       10.8137850387
  C         5.9330933681        8.8734263157       10.3923530772
  C         4.8385718432        8.8174882146        9.4526329995
  C         4.4691402205        7.4255452428        9.3429928582
  C         9.3953147090        5.9365228611       10.0948459592
  C         9.7906611771        7.3567717552       10.2226042317
  C         8.6518282481        8.0768548998       10.8209674154
  C         7.5747413128        7.1264032548       11.0281395979
  C         8.0398061551        5.8321491098       10.6044624908
  C         7.9835878586        5.2076481889        4.8292722891
  C         6.6416107278        5.6289217384        4.6195370517
  C         5.7975307356        4.9711717119        5.6151838697
  C         6.6952622408        4.1941938135        6.4613200508
  C         8.0122561223        4.3058087903        5.9672570074
  C         9.6543170872        8.3907589933        4.8310036306
  C         8.7278891594        7.4996315522        4.1833132394
  C         9.0308170894        6.1203884090        4.6078146003
  C        10.1273755953        6.1926687533        5.5400984879
  C        10.5525353873        7.5892885762        5.6496792712
  C         5.6048061114        9.0300011817        4.9039898746
  C         5.2064930376        7.6375646233        4.7702819770
  C         6.3295379049        6.9108474430        4.1841797204
  C         7.3871001890        7.8523526579        3.9638447435
  C         6.9553466526        9.1774256845        4.3931394537
  C         4.0331586963        6.9278507277        8.0468902593
  C         4.4904650464        5.6350849947        7.6276006418
  C         4.7036313163        5.6780974387        6.1873905513
  C         4.4347387210        7.0340871301        5.7637130054
  C         3.9961639932        7.8004793316        6.9233705155
  C         7.1448279390        4.9300992576        9.9699732415
  C         7.5623647866        4.2230879480        8.7980698705
  C         6.4384658187        4.1210683563        7.8521083766
  C         5.3064118873        4.8433554780        8.4161789635
  C         5.7487954399        5.3415214822        9.7347086206
  C        10.6375485394        5.8465584967        7.9386445246
  C        10.1992981357        5.3405934584        6.6681862621
  C         9.1063994692        4.3874176599        6.8871306422
  C         8.8651274395        4.3222511700        8.2931129529
  C         9.7965487970        5.2356891580        8.9746551015
