# Projected DOS for atomic kind C at iteration step i = 0, E(Fermi) =    -0.185902 a.u.
#     MO Eigenvalue [a.u.]      Occupation                 s                py                pz                px               d-2               d-1                d0               d+1               d+2
       1         -1.010074        2.000000        0.20858310        0.06247012        0.00000002        0.06106581        0.00290979        0.00000007        0.05870689        0.00000001        0.00292954
       2         -1.008977        2.000000        0.19592272        0.06975850        0.00000002        0.08458014        0.00340852        0.00000006        0.05355023        0.00000001        0.00306249
       3         -1.008605        2.000000        0.19627422        0.08347093        0.00000003        0.06999822        0.00307521        0.00000011        0.05369804        0.00000002        0.00338084
       4         -0.940445        2.000000        0.18097118        0.08540478        0.00000002        0.07455525        0.00637473        0.00000003        0.02878623        0.00000001        0.01042620
       5         -0.940214        2.000000        0.18100041        0.07333853        0.00000002        0.08650424        0.01049563        0.00000004        0.02881360        0.00000002        0.00625524
       6         -0.934660        2.000000        0.17810314        0.08895039        0.00000003        0.08658299        0.00755277        0.00000003        0.02622660        0.00000002        0.00761903
       7         -0.925869        2.000000        0.17681419        0.04362806        0.00000001        0.15176672        0.01306601        0.00000002        0.01927241        0.00000002        0.00800459
       8         -0.925538        2.000000        0.17688952        0.14900360        0.00000006        0.04629693        0.00795838        0.00000005        0.01929878        0.00000003        0.01310337
       9         -0.924209        2.000000        0.17835918        0.11320958        0.00000003        0.10824511        0.01136956        0.00000004        0.01657977        0.00000001        0.01169542
      10         -0.892425        2.000000        0.13757254        0.09408959        0.00000009        0.09503990        0.02968705        0.00000002        0.01167308        0.00000001        0.02937209
      11         -0.877314        2.000000        0.14168006        0.11586130        0.00000009        0.10392501        0.02924170        0.00000003        0.00776843        0.00000001        0.03259315
      12         -0.877281        2.000000        0.14172849        0.10417265        0.00000009        0.11553409        0.03251178        0.00000003        0.00777208        0.00000002        0.02921451
      13         -0.856525        2.000000        0.15054197        0.10060482        0.00000004        0.11365378        0.03262274        0.00000002        0.00498910        0.00000002        0.02094537
      14         -0.856442        2.000000        0.15023282        0.07896858        0.00000005        0.12034792        0.03667379        0.00000003        0.00491827        0.00000001        0.02592554
      15         -0.856085        2.000000        0.15006672        0.13291489        0.00000020        0.07714326        0.01775340        0.00000000        0.00494297        0.00000004        0.04060697
      16         -0.849164        2.000000        0.14251214        0.11564643        0.00000009        0.17965810        0.04125983        0.00000003        0.00318987        0.00000003        0.02396776
      17         -0.849029        2.000000        0.14271442        0.17957725        0.00000010        0.11501834        0.02374380        0.00000002        0.00320150        0.00000002        0.04092921
      18         -0.840731        2.000000        0.14970106        0.15466721        0.00000010        0.15070870        0.03104158        0.00000003        0.00214468        0.00000003        0.03162964
      19         -0.815747        2.000000        0.01264926        0.15298379        0.00000004        0.27416032        0.03909702        0.00000001        0.00025718        0.00000002        0.01960259
      20         -0.815487        2.000000        0.01280800        0.23257324        0.00000012        0.19557296        0.02613544        0.00000002        0.00024477        0.00000003        0.03211536
      21         -0.814993        2.000000        0.00888145        0.24083163        0.00000009        0.16589377        0.02595018        0.00000002        0.00049099        0.00000001        0.03786590
      22         -0.809043        2.000000        0.00660404        0.09208616        0.00000007        0.19928652        0.03492422        0.00000001        0.00066229        0.00000001        0.02067500
      23         -0.808886        2.000000        0.00708975        0.08153272        0.00000004        0.20617703        0.03145296        0.00000001        0.00056597        0.00000001        0.01554507
      24         -0.808108        2.000000        0.00667554        0.26140340        0.00000017        0.02616905        0.00900189        0.00000001        0.00060100        0.00000002        0.03948684
      25         -0.790009        2.000000        0.00083840        0.24835542        0.00000010        0.24162328        0.03916311        0.00000001        0.00003019        0.00000003        0.04056354
      26         -0.789702        2.000000        0.00080089        0.24317280        0.00000021        0.24702232        0.04050180        0.00000002        0.00003016        0.00000005        0.03922182
      27         -0.784849        2.000000        0.00098158        0.24226708        0.00000017        0.24280702        0.04393158        0.00000001        0.00001355        0.00000005        0.04395062
      28         -0.671797        2.000000        0.21496854        0.09804623        0.00000010        0.10821742        0.00730171        0.00000001        0.00036667        0.00000001        0.00812624
      29         -0.670374        2.000000        0.24897470        0.07592417        0.00000010        0.09179665        0.00486669        0.00000000        0.00030600        0.00000000        0.00308699
      30         -0.670180        2.000000        0.24918748        0.09746853        0.00000012        0.07011800        0.00338590        0.00000001        0.00030656        0.00000001        0.00461916
      31         -0.656439        2.000000        0.19063960        0.08188380        0.00000010        0.08419402        0.01367685        0.00000001        0.00076523        0.00000002        0.01310591
      32         -0.647215        2.000000        0.20374991        0.05201850        0.00000007        0.11799772        0.01863770        0.00000001        0.00092236        0.00000001        0.00941907
      33         -0.646837        2.000000        0.20379734        0.11673697        0.00000022        0.05312905        0.00923245        0.00000002        0.00092321        0.00000003        0.01875800
      34         -0.641489        2.000000        0.22172579        0.06599835        0.00000010        0.06419104        0.00766772        0.00000001        0.00106449        0.00000000        0.00746542
      35         -0.635279        2.000000        0.18741403        0.06792131        0.00000013        0.11301129        0.02469689        0.00000002        0.00128122        0.00000002        0.01568668
      36         -0.635049        2.000000        0.18725537        0.11426358        0.00000017        0.06696598        0.01554465        0.00000001        0.00128276        0.00000001        0.02489435
      37         -0.574140        2.000000        0.05018593        0.16333309        0.00000017        0.14960152        0.00410150        0.00000000        0.00061519        0.00000000        0.00852315
      38         -0.574014        2.000000        0.05068885        0.14876566        0.00000010        0.16430810        0.00846560        0.00000000        0.00062402        0.00000001        0.00411862
      39         -0.561607        2.000000        0.00304696        0.19636264        0.00000042        0.19826972        0.01405797        0.00000001        0.00013572        0.00000002        0.01390308
      40         -0.558711        2.000000        0.02957454        0.20838046        0.00000045        0.15580828        0.01927343        0.00000001        0.00076109        0.00000003        0.02190645
      41         -0.558164        2.000000        0.02316509        0.22510222        0.00000046        0.14930992        0.00481690        0.00000001        0.00049107        0.00000001        0.02097915
      42         -0.557886        2.000000        0.02444475        0.12225188        0.00000026        0.25062153        0.02270474        0.00000001        0.00052555        0.00000004        0.00434832
      43         -0.553499        2.000000        0.06936236        0.15928532        0.00000022        0.15893879        0.00633298        0.00000000        0.00114498        0.00000001        0.00564862
      44         -0.549015        2.000000        0.04612450        0.11683165        0.00000029        0.21062923        0.02803113        0.00000001        0.00115886        0.00000004        0.01344849
      45         -0.548707        2.000000        0.04668680        0.21057144        0.00000074        0.11595707        0.01329852        0.00000002        0.00116939        0.00000003        0.02832032
      46         -0.533228        2.000000        0.06651979        0.11799591        0.00000029        0.14465780        0.01296725        0.00000001        0.00171001        0.00000001        0.01538532
      47         -0.533160        2.000000        0.06516726        0.12322665        0.00000015        0.13896328        0.01743126        0.00000001        0.00168003        0.00000003        0.01152341
      48         -0.532566        2.000000        0.10146626        0.14440409        0.00000030        0.10208384        0.01016590        0.00000001        0.00262469        0.00000002        0.01343962
      49         -0.510277        2.000000        0.02258255        0.13301051        0.00000038        0.14043003        0.01336864        0.00000001        0.00070185        0.00000002        0.01687510
      50         -0.509962        2.000000        0.02253936        0.14125093        0.00000045        0.13377413        0.01667178        0.00000002        0.00069770        0.00000001        0.01346493
      51         -0.486556        2.000000        0.01957901        0.12151798        0.00000096        0.12449749        0.01077591        0.00000004        0.00061690        0.00000003        0.01086764
      52         -0.480703        2.000000        0.01874915        0.09271288        0.00000830        0.08718821        0.01882894        0.00000023        0.00039641        0.00000022        0.01944045
      53         -0.477787        2.000000        0.01730732        0.08584278        0.00001465        0.15697171        0.01425588        0.00000050        0.00029523        0.00000055        0.01205382
      54         -0.477674        2.000000        0.01743416        0.15462272        0.00000837        0.08639818        0.01218877        0.00000034        0.00029602        0.00000030        0.01410021
      55         -0.475793        2.000000        0.00000048        0.00000211        0.43126554        0.00000279        0.00000064        0.01159946        0.00000001        0.01158260        0.00000060
      56         -0.473518        2.000000        0.00000049        0.00000192        0.42723490        0.00000386        0.00000056        0.01318344        0.00000001        0.01528910        0.00000051
      57         -0.473162        2.000000        0.00000050        0.00000309        0.42728154        0.00000257        0.00000049        0.01525549        0.00000002        0.01315806        0.00000045
      58         -0.461222        2.000000        0.00780517        0.11885304        0.00000067        0.11518027        0.01106153        0.00000003        0.00039675        0.00000002        0.01176160
      59         -0.454189        2.000000        0.00915172        0.08857994        0.00000039        0.12064422        0.00879864        0.00000001        0.00037950        0.00000002        0.00747688
      60         -0.453721        2.000000        0.00915605        0.11519757        0.00000106        0.09056500        0.00820728        0.00000005        0.00038319        0.00000004        0.00821440
      61         -0.441181        2.000000        0.01385151        0.15440022        0.00000066        0.15970993        0.01410939        0.00000002        0.00083165        0.00000003        0.01456031
      62         -0.435508        2.000000        0.00962193        0.18783339        0.00000039        0.10061218        0.00888655        0.00000001        0.00055490        0.00000003        0.02128563
      63         -0.435344        2.000000        0.00954583        0.10728131        0.00000223        0.18191157        0.02125780        0.00000004        0.00054994        0.00000004        0.00881006
      64         -0.426727        2.000000        0.00688503        0.16990992        0.00000082        0.18257635        0.01541601        0.00000003        0.00064791        0.00000004        0.01446709
      65         -0.422733        2.000000        0.00759920        0.05600660        0.00000186        0.29107042        0.01937953        0.00000003        0.00066849        0.00000007        0.00858240
      66         -0.422470        2.000000        0.00753360        0.29671167        0.00000115        0.05115362        0.00838352        0.00000004        0.00066564        0.00000004        0.01949514
      67         -0.410343        2.000000        0.00000004        0.00000030        0.43719897        0.00000036        0.00000003        0.01502236        0.00000002        0.01337831        0.00000005
      68         -0.410109        2.000000        0.00000011        0.00000064        0.43727266        0.00000173        0.00000018        0.01315381        0.00000002        0.01519596        0.00000006
      69         -0.402946        2.000000        0.00000005        0.00000071        0.43525112        0.00000051        0.00000006        0.01674610        0.00000003        0.01635784        0.00000006
      70         -0.390468        2.000000        0.00000004        0.00000031        0.44590364        0.00000053        0.00000007        0.00836191        0.00000002        0.02897443        0.00000002
      71         -0.390144        2.000000        0.00000003        0.00000044        0.44605738        0.00000032        0.00000003        0.02858319        0.00000005        0.00873374        0.00000003
      72         -0.388156        2.000000        0.00000003        0.00000052        0.44802152        0.00000041        0.00000008        0.02304509        0.00000004        0.02228343        0.00000003
      73         -0.362070        2.000000        0.00000017        0.00000029        0.34243007        0.00000016        0.00000013        0.02764331        0.00000004        0.02790986        0.00000012
      74         -0.346079        2.000000        0.00000019        0.00000057        0.35840325        0.00000018        0.00000023        0.03404368        0.00000005        0.02613312        0.00000013
      75         -0.346056        2.000000        0.00000016        0.00000030        0.35876331        0.00000018        0.00000015        0.02611805        0.00000004        0.03400040        0.00000018
      76         -0.325398        2.000000        0.00000015        0.00000024        0.38506840        0.00000020        0.00000031        0.02432238        0.00000003        0.02905721        0.00000014
      77         -0.325336        2.000000        0.00000013        0.00000044        0.38804995        0.00000016        0.00000023        0.01826781        0.00000004        0.03281908        0.00000020
      78         -0.324961        2.000000        0.00000035        0.00000037        0.38508586        0.00000033        0.00000036        0.03636510        0.00000018        0.01655118        0.00000065
      79         -0.319856        2.000000        0.05568933        0.01258738        0.00000193        0.01365485        0.06996104        0.00000026        0.00786479        0.00000028        0.06881022
      80         -0.315294        2.000000        0.04108358        0.03265713        0.00015116        0.02010864        0.06356083        0.00001176        0.00480721        0.00001752        0.06052366
      81         -0.315127        2.000000        0.04126220        0.02065012        0.00018013        0.03186035        0.05968314        0.00001964        0.00484301        0.00001512        0.06446070
      82         -0.314549        2.000000        0.00001855        0.00001462        0.37005112        0.00001115        0.00003061        0.02839968        0.00000247        0.04202634        0.00002754
      83         -0.314400        2.000000        0.00001772        0.00000919        0.37032455        0.00001354        0.00002523        0.04183357        0.00000220        0.02851423        0.00002797
      84         -0.303559        2.000000        0.00000037        0.00000075        0.41264395        0.00000035        0.00000044        0.03300576        0.00000004        0.03247865        0.00000058
      85         -0.292338        2.000000        0.03712014        0.01557671        0.00000183        0.03477190        0.07628483        0.00000011        0.00448802        0.00000017        0.04757854
      86         -0.292240        2.000000        0.03528210        0.01071892        0.00000084        0.04208525        0.07796536        0.00000007        0.00410026        0.00000015        0.04470475
      87         -0.291597        2.000000        0.03568128        0.05139787        0.00000377        0.00085369        0.03042332        0.00000040        0.00418342        0.00000014        0.09249103
      88         -0.278845        2.000000        0.04262905        0.01047209        0.00000074        0.03247297        0.07173830        0.00000009        0.00552267        0.00000010        0.04778353
      89         -0.278564        2.000000        0.04269232        0.03240114        0.00000045        0.01037399        0.04823035        0.00000009        0.00553887        0.00000010        0.07139231
      90         -0.264890        2.000000        0.02060777        0.03352590        0.00000048        0.03392306        0.05481240        0.00000025        0.00208889        0.00000024        0.05492839
      91         -0.250394        2.000000        0.00000015        0.00000016        0.01813179        0.00000016        0.00000016        0.05554560        0.00000011        0.05756937        0.00000025
      92         -0.245121        2.000000        0.02757355        0.03582686        0.00000019        0.03537458        0.04389704        0.00000054        0.00255721        0.00000034        0.04431997
      93         -0.242855        2.000000        0.00000011        0.00000026        0.02079177        0.00000026        0.00000029        0.06092027        0.00000008        0.05473909        0.00000020
      94         -0.242784        2.000000        0.00000005        0.00000013        0.02084272        0.00000020        0.00000016        0.05416161        0.00000009        0.06022013        0.00000014
      95         -0.235650        2.000000        0.01780458        0.04427249        0.00000007        0.03185925        0.01696441        0.00000019        0.00157518        0.00000014        0.06094423
      96         -0.235324        2.000000        0.01762257        0.03178837        0.00000013        0.04443902        0.06078983        0.00000035        0.00156027        0.00000048        0.01695930
      97         -0.234534        2.000000        0.00000011        0.00000031        0.01080773        0.00000029        0.00000030        0.03230635        0.00000003        0.05954346        0.00000017
      98         -0.234504        2.000000        0.00000009        0.00000013        0.00938722        0.00000013        0.00000016        0.01848199        0.00000002        0.07276219        0.00000012
      99         -0.233708        2.000000        0.00000018        0.00000018        0.00899802        0.00000055        0.00000053        0.08657996        0.00000007        0.00396130        0.00000010
     100         -0.229020        2.000000        0.02607502        0.04275368        0.00000010        0.02462092        0.02050751        0.00000026        0.00233221        0.00000016        0.06036961
     101         -0.228762        2.000000        0.01525386        0.04387118        0.00000013        0.02988087        0.02679201        0.00000031        0.00131611        0.00000022        0.04363342
     102         -0.228230        2.000000        0.01764906        0.01993493        0.00000024        0.05231812        0.06518195        0.00000073        0.00153683        0.00000009        0.00760901
     103         -0.215259        2.000000        0.00000002        0.00000008        0.00131282        0.00000005        0.00000017        0.07666032        0.00000010        0.07586241        0.00000011
     104         -0.214937        2.000000        0.00000004        0.00000016        0.00126264        0.00000022        0.00000025        0.07623862        0.00000024        0.07631986        0.00000017
     105         -0.208937        2.000000        0.00000004        0.00000008        0.00388754        0.00000012        0.00000009        0.07298534        0.00000018        0.07302990        0.00000009
     106         -0.191152        2.000000        0.00353209        0.03525235        0.00000033        0.03452779        0.03214814        0.00000018        0.00033838        0.00000030        0.03381544
     107         -0.186114        2.000000        0.02401639        0.02122897        0.00000030        0.02669303        0.05291058        0.00000020        0.00262112        0.00000018        0.03374733
     108         -0.185902        2.000000        0.02410665        0.02637067        0.00000048        0.02148797        0.03442683        0.00000034        0.00262864        0.00000007        0.05231710
     109         -0.110690        0.000000        0.00000018        0.00000024        0.55985066        0.00000010        0.00000002        0.02206113        0.00000006        0.03747463        0.00000003
     110         -0.110406        0.000000        0.00000028        0.00000040        0.55972941        0.00000021        0.00000002        0.03751413        0.00000008        0.02210660        0.00000004
     111         -0.087662        0.000000        0.00000011        0.00000041        0.44776385        0.00000013        0.00000007        0.04380475        0.00000013        0.04318037        0.00000006
     112         -0.083644        0.000000        0.00000022        0.00000034        0.53524325        0.00000019        0.00000003        0.02293987        0.00000007        0.02492846        0.00000004
     113         -0.075572        0.000000        0.00000014        0.00000036        0.49014832        0.00000017        0.00000003        0.03311853        0.00000008        0.03228250        0.00000007
     114         -0.074911        0.000000        0.00000009        0.00000026        0.47951151        0.00000015        0.00000006        0.01971696        0.00000007        0.04280294        0.00000002
     115         -0.074665        0.000000        0.00000016        0.00000071        0.47996514        0.00000020        0.00000007        0.04304936        0.00000020        0.01951676        0.00000014
     116         -0.064640        0.000000        0.00000010        0.00000046        0.46284118        0.00000015        0.00000004        0.02807318        0.00000012        0.03562838        0.00000005
     117         -0.064464        0.000000        0.00000017        0.00000045        0.46305929        0.00000014        0.00000008        0.03561243        0.00000017        0.02810898        0.00000007
     118          0.021466        0.000000        0.00000008        0.00000028        0.43872959        0.00000016        0.00000003        0.02370366        0.00000015        0.02355502        0.00000006
     119          0.030597        0.000000        0.00000007        0.00000020        0.43461026        0.00000017        0.00000001        0.01020673        0.00000011        0.03415053        0.00000006
     120          0.030747        0.000000        0.00000020        0.00000026        0.43482065        0.00000019        0.00000007        0.03419456        0.00000029        0.01010883        0.00000007
     121          0.037534        0.000000        0.00000010        0.00000018        0.45759540        0.00000025        0.00000009        0.01633183        0.00000019        0.01805116        0.00000006
     122          0.042572        0.000000        0.00000012        0.00000020        0.45489392        0.00000018        0.00000007        0.01757042        0.00000021        0.01359529        0.00000005
     123          0.042668        0.000000        0.00000009        0.00000026        0.45500602        0.00000021        0.00000005        0.01428366        0.00000014        0.01686429        0.00000006
     124          0.060598        0.000000        0.01603260        0.01873210        0.00000003        0.04510505        0.00267215        0.00000001        0.00781461        0.00000000        0.00148634
     125          0.060976        0.000000        0.01785495        0.01576488        0.00000004        0.04290547        0.00235142        0.00000000        0.00627249        0.00000000        0.00113030
     126          0.062217        0.000000        0.01744103        0.05676686        0.00000009        0.00326968        0.00061230        0.00000001        0.00670316        0.00000000        0.00308314
     127          0.071047        0.000000        0.05991945        0.04378187        0.00000007        0.05083903        0.00652099        0.00000001        0.01551104        0.00000001        0.00575278
     128          0.075095        0.000000        0.02510620        0.04584131        0.00000004        0.04832202        0.00387297        0.00000002        0.02540862        0.00000001        0.00306574
     129          0.075527        0.000000        0.02486834        0.05226041        0.00000011        0.04229126        0.00267770        0.00000003        0.02564176        0.00000003        0.00427712
     130          0.114011        0.000000        0.27277531        0.04436073        0.00000418        0.06953778        0.03577602        0.00000011        0.05643398        0.00000003        0.02311495
     131          0.114122        0.000000        0.25788837        0.08911187        0.00000359        0.02855761        0.00907890        0.00000011        0.04855605        0.00000002        0.05539031
     132          0.114618        0.000000        0.23619138        0.04485423        0.00002421        0.08081816        0.05294940        0.00000011        0.03695989        0.00000009        0.02079973
     133          0.117490        0.000000        0.00000248        0.00000064        0.40366382        0.00000024        0.00000009        0.00216571        0.00000026        0.00259053        0.00000034
     134          0.117558        0.000000        0.00000639        0.00000169        0.40304693        0.00000110        0.00000068        0.00217555        0.00000063        0.00265759        0.00000088
     135          0.118014        0.000000        0.00002145        0.00000628        0.40338136        0.00000436        0.00000244        0.00284682        0.00000374        0.00193435        0.00000356
     136          0.119651        0.000000        0.11129810        0.09461898        0.00000934        0.02579625        0.01627380        0.00000006        0.04115572        0.00000004        0.05537475
     137          0.119931        0.000000        0.11010900        0.02603463        0.00000338        0.09637718        0.05719894        0.00000009        0.03962015        0.00000004        0.01686775
     138          0.129308        0.000000        0.00677878        0.01652618        0.00000059        0.01694038        0.01326392        0.00000001        0.00215189        0.00000001        0.01361611
     139          0.134206        0.000000        0.12148970        0.06157738        0.00000105        0.02229469        0.01723467        0.00000007        0.01824057        0.00000002        0.03206651
     140          0.134442        0.000000        0.12807880        0.02229382        0.00000033        0.06227005        0.03197463        0.00000003        0.02062603        0.00000004        0.01712371
     141          0.141315        0.000000        0.12299580        0.04822142        0.00000021        0.05339929        0.01381070        0.00000031        0.11813997        0.00000008        0.01712138
     142          0.141384        0.000000        0.11347622        0.05480018        0.00000024        0.04293998        0.01552864        0.00000012        0.11539048        0.00000006        0.01394323
     143          0.143961        0.000000        0.07503880        0.07467296        0.00000015        0.07986108        0.02189021        0.00000043        0.18645462        0.00000006        0.01908336
     144          0.155303        0.000000        0.20776603        0.05203321        0.00000010        0.09322037        0.01077271        0.00000010        0.10429051        0.00000008        0.01771893