# Projected DOS for atomic kind H at iteration step i = 0, E(Fermi) =    -0.185902 a.u.
#     MO Eigenvalue [a.u.]      Occupation                 s                py                pz                px
       1         -1.010074        2.000000        0.00484447        0.00245588        0.00000000        0.00200632
       2         -1.008977        2.000000        0.00235629        0.00139543        0.00000000        0.00196055
       3         -1.008605        2.000000        0.00242538        0.00174339        0.00000000        0.00163950
       4         -0.940445        2.000000        0.02496532        0.01509833        0.00000000        0.00376838
       5         -0.940214        2.000000        0.02500199        0.00405655        0.00000000        0.01485244
       6         -0.934660        2.000000        0.02334869        0.00918922        0.00000000        0.00950941
       7         -0.925869        2.000000        0.01464966        0.00560918        0.00000000        0.00713062
       8         -0.925538        2.000000        0.01459202        0.00704006        0.00000000        0.00566350
       9         -0.924209        2.000000        0.00006158        0.00146562        0.00000000        0.00152463
      10         -0.892425        2.000000        0.05881847        0.01850967        0.00000000        0.01807652
      11         -0.877314        2.000000        0.03989407        0.01161567        0.00000000        0.01237920
      12         -0.877281        2.000000        0.03992506        0.01226757        0.00000000        0.01173126
      13         -0.856525        2.000000        0.05216757        0.01806806        0.00000000        0.00992485
      14         -0.856442        2.000000        0.05315726        0.01477048        0.00000000        0.01394753
      15         -0.856085        2.000000        0.05112247        0.00954651        0.00000001        0.01810273
      16         -0.849164        2.000000        0.00500986        0.00208052        0.00000000        0.00212856
      17         -0.849029        2.000000        0.00560896        0.00210226        0.00000000        0.00242778
      18         -0.840731        2.000000        0.00019245        0.00032899        0.00000000        0.00034674
      19         -0.815747        2.000000        0.05389295        0.01761626        0.00000000        0.00266176
      20         -0.815487        2.000000        0.05352520        0.00456348        0.00000000        0.01554198
      21         -0.814993        2.000000        0.06495808        0.01114495        0.00000000        0.01455457
      22         -0.809043        2.000000        0.14987326        0.04000245        0.00000001        0.02145105
      23         -0.808886        2.000000        0.16074650        0.04387222        0.00000001        0.02272011
      24         -0.808108        2.000000        0.15931260        0.01279546        0.00000004        0.05317998
      25         -0.790009        2.000000        0.00156758        0.00057942        0.00000000        0.00026907
      26         -0.789702        2.000000        0.00145559        0.00024170        0.00000000        0.00056691
      27         -0.784849        2.000000        0.00021460        0.00037310        0.00000000        0.00034081
      28         -0.671797        2.000000        0.00093963        0.00235932        0.00000000        0.00309449
      29         -0.670374        2.000000        0.00491475        0.00169101        0.00000000        0.00316107
      30         -0.670180        2.000000        0.00482611        0.00348366        0.00000000        0.00133545
      31         -0.656439        2.000000        0.04265165        0.00357648        0.00000000        0.00336043
      32         -0.647215        2.000000        0.03569015        0.00594071        0.00000000        0.00215623
      33         -0.646837        2.000000        0.03575895        0.00212994        0.00000000        0.00597964
      34         -0.641489        2.000000        0.05412544        0.00399327        0.00000000        0.00407605
      35         -0.635279        2.000000        0.03117377        0.00166966        0.00000000        0.00138197
      36         -0.635049        2.000000        0.03104884        0.00136991        0.00000000        0.00168870
      37         -0.574140        2.000000        0.04796976        0.00280531        0.00000000        0.00242308
      38         -0.574014        2.000000        0.04747240        0.00240480        0.00000000        0.00289255
      39         -0.561607        2.000000        0.00884790        0.00010780        0.00000000        0.00012871
      40         -0.558711        2.000000        0.00177003        0.00070356        0.00000000        0.00138839
      41         -0.558164        2.000000        0.01074094        0.00141289        0.00000000        0.00197504
      42         -0.557886        2.000000        0.00994971        0.00232785        0.00000000        0.00101555
      43         -0.553499        2.000000        0.03103491        0.00310177        0.00000000        0.00330574
      44         -0.549015        2.000000        0.01777283        0.00182261        0.00000000        0.00251031
      45         -0.548707        2.000000        0.01794968        0.00264878        0.00000000        0.00174955
      46         -0.533228        2.000000        0.06944054        0.00266725        0.00000000        0.00102999
      47         -0.533160        2.000000        0.07075378        0.00090292        0.00000000        0.00241331
      48         -0.532566        2.000000        0.05013491        0.00604087        0.00000000        0.00624673
      49         -0.510277        2.000000        0.08364444        0.00197261        0.00000000        0.00605251
      50         -0.509962        2.000000        0.08239543        0.00609487        0.00000000        0.00200429
      51         -0.486556        2.000000        0.12238678        0.00251132        0.00000000        0.00278704
      52         -0.480703        2.000000        0.15696181        0.00027043        0.00000002        0.00029190
      53         -0.477787        2.000000        0.10520829        0.00473937        0.00000003        0.01231775
      54         -0.477674        2.000000        0.10666475        0.01233326        0.00000001        0.00466083
      55         -0.475793        2.000000        0.00000461        0.00000010        0.00101006        0.00000007
      56         -0.473518        2.000000        0.00000404        0.00000013        0.00049507        0.00000032
      57         -0.473162        2.000000        0.00000291        0.00000030        0.00050171        0.00000012
      58         -0.461222        2.000000        0.13702971        0.00326228        0.00000000        0.00300375
      59         -0.454189        2.000000        0.15984952        0.00173206        0.00000000        0.00464752
      60         -0.453721        2.000000        0.16247703        0.00453065        0.00000000        0.00183700
      61         -0.441181        2.000000        0.04353261        0.00881635        0.00000001        0.00888207
      62         -0.435508        2.000000        0.07691901        0.00196807        0.00000000        0.00102356
      63         -0.435344        2.000000        0.07645867        0.00113208        0.00000004        0.00193105
      64         -0.426727        2.000000        0.02575264        0.00368694        0.00000001        0.00405641
      65         -0.422733        2.000000        0.02746916        0.00310037        0.00000002        0.00712238
      66         -0.422470        2.000000        0.02687770        0.00744178        0.00000002        0.00297461
      67         -0.410343        2.000000        0.00000005        0.00000000        0.00864519        0.00000000
      68         -0.410109        2.000000        0.00000045        0.00000001        0.00865668        0.00000001
      69         -0.402946        2.000000        0.00000006        0.00000001        0.00834956        0.00000001
      70         -0.390468        2.000000        0.00000004        0.00000001        0.00557648        0.00000001
      71         -0.390144        2.000000        0.00000002        0.00000001        0.00553601        0.00000001
      72         -0.388156        2.000000        0.00000005        0.00000000        0.00001151        0.00000001
      73         -0.362070        2.000000        0.00000001        0.00000000        0.01599259        0.00000000
      74         -0.346079        2.000000        0.00000002        0.00000000        0.00995472        0.00000000
      75         -0.346056        2.000000        0.00000002        0.00000000        0.00997076        0.00000000
      76         -0.325398        2.000000        0.00000002        0.00000000        0.01459596        0.00000000
      77         -0.325336        2.000000        0.00000001        0.00000000        0.01363916        0.00000000
      78         -0.324961        2.000000        0.00000003        0.00000000        0.01409107        0.00000001
      79         -0.319856        2.000000        0.00443481        0.00035386        0.00000008        0.00032398
      80         -0.315294        2.000000        0.00217198        0.00039963        0.00000085        0.00015291
      81         -0.315127        2.000000        0.00217376        0.00013804        0.00000105        0.00041137
      82         -0.314549        2.000000        0.00000085        0.00000018        0.00234325        0.00000007
      83         -0.314400        2.000000        0.00000083        0.00000006        0.00244936        0.00000017
      84         -0.303559        2.000000        0.00000005        0.00000000        0.00004790        0.00000000
      85         -0.292338        2.000000        0.00438415        0.00045017        0.00000003        0.00034942
      86         -0.292240        2.000000        0.00416947        0.00050021        0.00000005        0.00031250
      87         -0.291597        2.000000        0.00420727        0.00026021        0.00000009        0.00054467
      88         -0.278845        2.000000        0.00024193        0.00013399        0.00000001        0.00048977
      89         -0.278564        2.000000        0.00024008        0.00048741        0.00000003        0.00013537
      90         -0.264890        2.000000        0.00004474        0.00026390        0.00000004        0.00025696
      91         -0.250394        2.000000        0.00000001        0.00000001        0.02972920        0.00000000
      92         -0.245121        2.000000        0.00191883        0.00021444        0.00000017        0.00020122
      93         -0.242855        2.000000        0.00000001        0.00000000        0.03583791        0.00000002
      94         -0.242784        2.000000        0.00000001        0.00000001        0.03730956        0.00000000
      95         -0.235650        2.000000        0.00136637        0.00068101        0.00000007        0.00045973
      96         -0.235324        2.000000        0.00135830        0.00043673        0.00000052        0.00069351
      97         -0.234534        2.000000        0.00000001        0.00000003        0.06904984        0.00000001
      98         -0.234504        2.000000        0.00000000        0.00000002        0.07082866        0.00000001
      99         -0.233708        2.000000        0.00000001        0.00000001        0.07178936        0.00000011
     100         -0.229020        2.000000        0.00154027        0.00121992        0.00000018        0.00110228
     101         -0.228762        2.000000        0.00153312        0.00120371        0.00000032        0.00089061
     102         -0.228230        2.000000        0.00154840        0.00087555        0.00000080        0.00127661
     103         -0.215259        2.000000        0.00000000        0.00000000        0.00057247        0.00000000
     104         -0.214937        2.000000        0.00000001        0.00000001        0.00053131        0.00000000
     105         -0.208937        2.000000        0.00000000        0.00000001        0.00015063        0.00000000
     106         -0.191152        2.000000        0.00008173        0.00088673        0.00000003        0.00096458
     107         -0.186114        2.000000        0.00036829        0.00078844        0.00000003        0.00132452
     108         -0.185902        2.000000        0.00036776        0.00136461        0.00000003        0.00074439
     109         -0.110690        0.000000        0.00000001        0.00000000        0.00644817        0.00000000
     110         -0.110406        0.000000        0.00000002        0.00000000        0.00640005        0.00000001
     111         -0.087662        0.000000        0.00000001        0.00000000        0.00041313        0.00000000
     112         -0.083644        0.000000        0.00000000        0.00000001        0.01847595        0.00000001
     113         -0.075572        0.000000        0.00000001        0.00000001        0.01398882        0.00000000
     114         -0.074911        0.000000        0.00000000        0.00000001        0.01074504        0.00000000
     115         -0.074665        0.000000        0.00000001        0.00000000        0.01072841        0.00000002
     116         -0.064640        0.000000        0.00000001        0.00000000        0.00635901        0.00000001
     117         -0.064464        0.000000        0.00000001        0.00000001        0.00626046        0.00000000
     118          0.021466        0.000000        0.00000003        0.00000001        0.00027500        0.00000002
     119          0.030597        0.000000        0.00000001        0.00000001        0.00826326        0.00000001
     120          0.030747        0.000000        0.00000005        0.00000005        0.00832305        0.00000002
     121          0.037534        0.000000        0.00000004        0.00000002        0.01193681        0.00000002
     122          0.042572        0.000000        0.00000004        0.00000003        0.01371860        0.00000002
     123          0.042668        0.000000        0.00000007        0.00000002        0.01375188        0.00000003
     124          0.060598        0.000000        0.27391805        0.13733243        0.00000005        0.11046092
     125          0.060976        0.000000        0.28125443        0.13899329        0.00000004        0.11308017
     126          0.062217        0.000000        0.27939583        0.09887934        0.00000014        0.15166278
     127          0.071047        0.000000        0.18557076        0.12826576        0.00000002        0.10162853
     128          0.075095        0.000000        0.18346691        0.15863883        0.00000002        0.07597534
     129          0.075527        0.000000        0.18292580        0.06262539        0.00000002        0.17145433
     130          0.114011        0.000000        0.02464854        0.01842645        0.00000002        0.05020125
     131          0.114122        0.000000        0.03516553        0.04828532        0.00000005        0.02284799
     132          0.114618        0.000000        0.04818117        0.03916706        0.00000031        0.03129862
     133          0.117490        0.000000        0.00000067        0.00000053        0.00416472        0.00000050
     134          0.117558        0.000000        0.00000200        0.00000107        0.00395616        0.00000179
     135          0.118014        0.000000        0.00000392        0.00000536        0.00408402        0.00000255
     136          0.119651        0.000000        0.09755113        0.08481764        0.00000009        0.07072950
     137          0.119931        0.000000        0.09757549        0.07043285        0.00000004        0.08240522
     138          0.129308        0.000000        0.23403965        0.18908438        0.00000006        0.18146682
     139          0.134206        0.000000        0.11906360        0.14729075        0.00000005        0.08666107
     140          0.134442        0.000000        0.11353129        0.08030825        0.00000006        0.14978637
     141          0.141315        0.000000        0.05914579        0.08094047        0.00000002        0.04692059
     142          0.141384        0.000000        0.06905592        0.04990554        0.00000004        0.08872445
     143          0.143961        0.000000        0.02221077        0.02022253        0.00000001        0.01939340
     144          0.155303        0.000000        0.01341054        0.04343324        0.00000002        0.04463139
     145          0.155382        0.000000        0.01127566        0.03302221        0.00000001        0.04797980
     146          0.155881        0.000000        0.01036105        0.04582301        0.00000003        0.03016518
     147          0.156024        0.000000        0.00241804        0.06348608        0.00000001        0.06255863
     148          0.161946        0.000000        0.02007281        0.04302931        0.00000002        0.04247843
     149          0.166854        0.000000        0.01832209        0.01687209        0.00000001        0.03216037
     150          0.167090        0.000000        0.01885701        0.03177611        0.00000002        0.01658825
     151          0.172183        0.000000        0.01154590        0.01606595        0.00000001        0.00984162
     152          0.172259        0.000000        0.01183773        0.00927714        0.00000000        0.01517436
     153          0.177638        0.000000        0.03354011        0.01367612        0.00000001        0.01293855
     154          0.182132        0.000000        0.02164745        0.01651746        0.00000001        0.01650750
     155          0.186774        0.000000        0.02292183        0.01687759        0.00000001        0.01454926
     156          0.187002        0.000000        0.02105583        0.01530768        0.00000001        0.01293194
     157          0.188580        0.000000        0.02278726        0.02274354        0.00000001        0.01493904
     158          0.188757        0.000000        0.02605095        0.01135483        0.00000003        0.01843387
     159          0.188933        0.000000        0.02401688        0.00784341        0.00000001        0.01492061
     160          0.196636        0.000000        0.00300031        0.00485055        0.00000000        0.00508813
     161          0.215686        0.000000        0.00000008        0.00000016        0.02197409        0.00000014
     162          0.219241        0.000000        0.00598652        0.00747178        0.00000002        0.01700798
     163          0.219468        0.000000        0.00600460        0.01696542        0.00000019        0.00754788
     164          0.237069        0.000000        0.04018847        0.01067813        0.00000062        0.01044978
     165          0.239290        0.000000        0.00000025        0.00000012        0.02686519        0.00000021
     166          0.239563        0.000000        0.00000135        0.00000068        0.02693794        0.00000035
     167          0.241791        0.000000        0.03176084        0.03761578        0.00000022        0.00472388
     168          0.242114        0.000000        0.03171022        0.00505597        0.00000028        0.03732357
     169          0.249356        0.000000        0.02068566        0.01198956        0.00000006        0.01260730
     170          0.250797        0.000000        0.01296647        0.01667586        0.00000000        0.01697822
     171          0.268303        0.000000        0.02792046        0.01321037        0.00000004        0.01133123
     172          0.268348        0.000000        0.02834012        0.01144204        0.00000007        0.01311542
     173          0.275640        0.000000        0.03357015        0.04694963        0.00000017        0.03425373
     174          0.275766        0.000000        0.03355739        0.03331713        0.00000019        0.04760663
     175          0.284227        0.000000        0.00000019        0.00000017        0.06670933        0.00000019
     176          0.284305        0.000000        0.00000017        0.00000019        0.06704305        0.00000029
     177          0.286196        0.000000        0.00000032        0.00000055        0.06411903        0.00000039
     178          0.288274        0.000000        0.01508953        0.01863614        0.00000129        0.01873397
     179          0.296024        0.000000        0.01865407        0.04279073        0.00000010        0.05698419
     180          0.296316        0.000000        0.01628734        0.01108831        0.00000010        0.05380495
     181          0.296610        0.000000        0.01724509        0.05920414        0.00000013        0.01059974
     182          0.300157        0.000000        0.02496626        0.03182176        0.00000014        0.01594968
     183          0.300309        0.000000        0.02492825        0.01841916        0.00000006        0.02548359
     184          0.308085        0.000000        0.04934053        0.03400813        0.00000025        0.02945566
     185          0.308866        0.000000        0.02306864        0.02058725        0.00000023        0.01915353
     186          0.309018        0.000000        0.02226107        0.01785360        0.00000021        0.02307122
     187          0.316634        0.000000        0.00619492        0.00250089        0.00000035        0.00159028
     188          0.316740        0.000000        0.00619470        0.00226207        0.00000029        0.00162117
     189          0.317734        0.000000        0.00676491        0.00073542        0.00000021        0.00125336
     190          0.317926        0.000000        0.02300326        0.01409087        0.00000004        0.01514794
     191          0.325435        0.000000        0.00025672        0.00021747        0.08373178        0.00041021
     192          0.325502        0.000000        0.01979344        0.01696781        0.00105939        0.03197368
     193          0.325796        0.000000        0.01802647        0.02981576        0.00775282        0.01542558
     194          0.325832        0.000000        0.00179369        0.00299170        0.07696345        0.00154579
     195          0.338908        0.000000        0.03389410        0.02121342        0.00000026        0.02751710
     196          0.339262        0.000000        0.03385148        0.02763578        0.00000054        0.02112230
     197          0.342352        0.000000        0.00306907        0.00840839        0.00000093        0.00874692
     198          0.345679        0.000000        0.00000441        0.00000269        0.00746165        0.00000341
     199          0.349992        0.000000        0.00000065        0.00000046        0.11130578        0.00000044
     200          0.351494        0.000000        0.02143146        0.03337807        0.00000240        0.03278291
     201          0.361760        0.000000        0.05030229        0.01958460        0.00000030        0.02411320
     202          0.362098        0.000000        0.05007554        0.02475379        0.00000020        0.01906541
     203          0.367457        0.000000        0.00004759        0.00001818        0.09300285        0.00002149
     204          0.368058        0.000000        0.03769757        0.01548544        0.00010862        0.01610533
     205          0.381668        0.000000        0.06849088        0.02453281        0.00000049        0.01652840
     206          0.381939        0.000000        0.06784207        0.01661738        0.00000045        0.02424545
     207          0.389516        0.000000        0.00000017        0.00000006        0.04325049        0.00000024
     208          0.389570        0.000000        0.00000029        0.00000020        0.04329383        0.00000024
     209          0.398023        0.000000        0.03374807        0.00946045        0.00000115        0.01448342
     210          0.398178        0.000000        0.03310857        0.01469960        0.00000108        0.00937655
     211          0.406911        0.000000        0.00104877        0.00050481        0.07001680        0.00048011
     212          0.406935        0.000000        0.01096221        0.00521455        0.00685757        0.00507415
     213          0.406957        0.000000        0.00001523        0.00000703        0.07585568        0.00000716
     214          0.415074        0.000000        0.02254292        0.01006466        0.00000148        0.02440774
     215          0.415192        0.000000        0.02169062        0.02364096        0.00000270        0.01058595
     216          0.419786        0.000000        0.10806898        0.01604141        0.00000020        0.01539472
     217          0.427914        0.000000        0.09301336        0.01034097        0.00000042        0.00943430
     218          0.429967        0.000000        0.09809200        0.03272620        0.00000018        0.00602171
     219          0.430347        0.000000        0.09734152        0.00536552        0.00000015        0.03285280
     220          0.442234        0.000000        0.01260898        0.02369091        0.00000021        0.02357734
     221          0.452087        0.000000        0.01380528        0.00564132        0.00000013        0.00196330
     222          0.452400        0.000000        0.01382174        0.00189316        0.00000066        0.00571868
     223          0.453997        0.000000        0.08209926        0.01507166        0.00000016        0.01545432
     224          0.461872        0.000000        0.00000050        0.00000019        0.05567829        0.00000013
     225          0.462120        0.000000        0.00000039        0.00000010        0.05603092        0.00000009
     226          0.471132        0.000000        0.00962157        0.00496328        0.00000127        0.00501730
     227          0.477886        0.000000        0.00000098        0.00000023        0.06212301        0.00000030
     228          0.480655        0.000000        0.00008330        0.00000960        0.05180826        0.00001813
     229          0.480706        0.000000        0.00000377        0.00000075        0.05162657        0.00000061
     230          0.482176        0.000000        0.00002913        0.00000311        0.05657475        0.00000597
     231          0.482324        0.000000        0.04941213        0.01000001        0.00000976        0.00605513
     232          0.482450        0.000000        0.04942751        0.00606089        0.00011295        0.01007602
     233          0.493374        0.000000        0.00262803        0.00551513        0.00000036        0.00534757
     234          0.493543        0.000000        0.00269378        0.00531024        0.00000050        0.00560959
     235          0.502171        0.000000        0.00874637        0.00396669        0.00000024        0.00353273
     236          0.502405        0.000000        0.00901324        0.00321962        0.00000009        0.00438290
     237          0.504617        0.000000        0.00191136        0.00723263        0.00000021        0.00643023
     238          0.511578        0.000000        0.02971876        0.00215334        0.00000025        0.00216132
     239          0.516291        0.000000        0.03221672        0.00303259        0.00000044        0.00152567
     240          0.516346        0.000000        0.03263027        0.00150092        0.00000034        0.00313097
     241          0.533511        0.000000        0.00000019        0.00000002        0.05828013        0.00000002
     242          0.533751        0.000000        0.00000018        0.00000003        0.05818340        0.00000003
     243          0.545698        0.000000        0.00000016        0.00000002        0.02636295        0.00000001
     244          0.567982        0.000000        0.01180542        0.00833180        0.00000060        0.00516163
     245          0.568300        0.000000        0.01166905        0.00512328        0.00000023        0.00842375
     246          0.569265        0.000000        0.00809502        0.00162320        0.00000005        0.00146869
     247          0.569530        0.000000        0.00801314        0.00155880        0.00000019        0.00152430
     248          0.574536        0.000000        0.01520458        0.00296120        0.00001622        0.00307867
     249          0.575630        0.000000        0.00000048        0.00000010        0.03506766        0.00000027
     250          0.575693        0.000000        0.00000727        0.00000124        0.03510121        0.00000181
     251          0.578605        0.000000        0.00312916        0.00694458        0.00000052        0.00689837
     252          0.596930        0.000000        0.01103763        0.00023653        0.00001404        0.00021233
     253          0.601290        0.000000        0.00000324        0.00000018        0.03842337        0.00000008
     254          0.606119        0.000000        0.00290358        0.00020367        0.00000038        0.00037779
     255          0.606414        0.000000        0.00290798        0.00036536        0.00000058        0.00020636
     256          0.628535        0.000000        0.01189358        0.00326386        0.00000042        0.00346628
     257          0.641727        0.000000        0.01026953        0.00283223        0.00000139        0.00578852
     258          0.642071        0.000000        0.01016765        0.00586352        0.00000027        0.00273280
     259          0.683691        0.000000        0.03417421        0.00655478        0.00001984        0.00101395