# Projected DOS for atomic kind N at iteration step i = 0, E(Fermi) =    -0.185902 a.u.
#     MO Eigenvalue [a.u.]      Occupation                 s                py                pz                px               d-2               d-1                d0               d+1               d+2
       1         -1.010074        2.000000        0.46972850        0.05993255        0.00000018        0.05721935        0.00060979        0.00000001        0.00591015        0.00000000        0.00062745
       2         -1.008977        2.000000        0.43268188        0.06452785        0.00000015        0.07948566        0.00072840        0.00000001        0.00595391        0.00000000        0.00062719
       3         -1.008605        2.000000        0.43372836        0.07786042        0.00000024        0.06540069        0.00063326        0.00000001        0.00595258        0.00000000        0.00071855
       4         -0.940445        2.000000        0.36303345        0.11366470        0.00000006        0.08428498        0.00134316        0.00000001        0.00487306        0.00000000        0.00245013
       5         -0.940214        2.000000        0.36308356        0.08402329        0.00000009        0.11391405        0.00243472        0.00000001        0.00487476        0.00000001        0.00135079
       6         -0.934660        2.000000        0.35287850        0.10118867        0.00000008        0.10049093        0.00184969        0.00000001        0.00468238        0.00000001        0.00182741
       7         -0.925869        2.000000        0.32408652        0.07482966        0.00000005        0.15266039        0.00240432        0.00000001        0.00451071        0.00000001        0.00156681
       8         -0.925538        2.000000        0.32412434        0.15070127        0.00000010        0.07684805        0.00158505        0.00000002        0.00451187        0.00000001        0.00238298
       9         -0.924209        2.000000        0.30878086        0.12262842        0.00000007        0.11767888        0.00201416        0.00000002        0.00427996        0.00000001        0.00210709
      10         -0.892425        2.000000        0.38370489        0.05410378        0.00000005        0.05518208        0.00541761        0.00000000        0.00335205        0.00000001        0.00540049
      11         -0.877314        2.000000        0.35181529        0.07160907        0.00000004        0.06810799        0.00511002        0.00000001        0.00294036        0.00000001        0.00545850
      12         -0.877281        2.000000        0.35168668        0.06806713        0.00000005        0.07189001        0.00545068        0.00000001        0.00294096        0.00000001        0.00510684
      13         -0.856525        2.000000        0.33442587        0.07206325        0.00000003        0.07548219        0.00704290        0.00000000        0.00275110        0.00000000        0.00471632
      14         -0.856442        2.000000        0.33681707        0.06361505        0.00000003        0.08637887        0.00712384        0.00000001        0.00268393        0.00000001        0.00443891
      15         -0.856085        2.000000        0.33635495        0.08612121        0.00000008        0.06084176        0.00331393        0.00000001        0.00270635        0.00000001        0.00846154
      16         -0.849164        2.000000        0.32942396        0.07365810        0.00000006        0.06566622        0.00869813        0.00000001        0.00234253        0.00000000        0.00475774
      17         -0.849029        2.000000        0.32904483        0.06571021        0.00000004        0.07412155        0.00479565        0.00000001        0.00235249        0.00000001        0.00865155
      18         -0.840731        2.000000        0.31771103        0.07188012        0.00000006        0.07200244        0.00764950        0.00000001        0.00221521        0.00000000        0.00778039
      19         -0.815747        2.000000        0.37071158        0.02369618        0.00000002        0.02292281        0.00471407        0.00000001        0.00192751        0.00000000        0.00310662
      20         -0.815487        2.000000        0.37001314        0.02624364        0.00000005        0.02084116        0.00382577        0.00000001        0.00193318        0.00000000        0.00406242
      21         -0.814993        2.000000        0.38245822        0.01682092        0.00000002        0.02184430        0.00265703        0.00000000        0.00187633        0.00000000        0.00377153
      22         -0.809043        2.000000        0.39606649        0.01346673        0.00000002        0.02029342        0.00184009        0.00000000        0.00213225        0.00000000        0.00063591
      23         -0.808886        2.000000        0.39111356        0.01267576        0.00000001        0.02018883        0.00284279        0.00000000        0.00228722        0.00000000        0.00118943
      24         -0.808108        2.000000        0.39234013        0.02401205        0.00000004        0.00918346        0.00036406        0.00000000        0.00225867        0.00000001        0.00321556
      25         -0.790009        2.000000        0.37546859        0.02465500        0.00000003        0.02259350        0.00122973        0.00000000        0.00139502        0.00000000        0.00166795
      26         -0.789702        2.000000        0.37546174        0.02240772        0.00000007        0.02482815        0.00167185        0.00000000        0.00139478        0.00000000        0.00122140
      27         -0.784849        2.000000        0.38077773        0.02052215        0.00000006        0.02012265        0.00124459        0.00000000        0.00117241        0.00000000        0.00128025
      28         -0.671797        2.000000        0.05899767        0.21618312        0.00000006        0.25914967        0.01213104        0.00000002        0.00001602        0.00000002        0.01010202
      29         -0.670374        2.000000        0.04709121        0.20061275        0.00000005        0.29606376        0.01140393        0.00000001        0.00002949        0.00000001        0.01007664
      30         -0.670180        2.000000        0.04711343        0.31943262        0.00000006        0.17719748        0.00898971        0.00000002        0.00002971        0.00000002        0.01250597
      31         -0.656439        2.000000        0.07283956        0.23298056        0.00000008        0.24008002        0.01014631        0.00000002        0.00003622        0.00000002        0.01006311
      32         -0.647215        2.000000        0.08124959        0.16246989        0.00000006        0.28472429        0.01432631        0.00000001        0.00004817        0.00000002        0.01064922
      33         -0.646837        2.000000        0.08120322        0.28285468        0.00000011        0.16449065        0.01090618        0.00000004        0.00004813        0.00000002        0.01405117
      34         -0.641489        2.000000        0.05965310        0.24587819        0.00000005        0.23881421        0.01242842        0.00000001        0.00007158        0.00000002        0.01284674
      35         -0.635279        2.000000        0.09460993        0.19798869        0.00000006        0.23709789        0.01674477        0.00000002        0.00014203        0.00000002        0.00917960
      36         -0.635049        2.000000        0.09472943        0.23601074        0.00000009        0.19885532        0.00908556        0.00000002        0.00014189        0.00000001        0.01686262
      37         -0.574140        2.000000        0.01209964        0.34049857        0.00000008        0.19857193        0.00799415        0.00000001        0.00009116        0.00000001        0.01118575
      38         -0.574014        2.000000        0.01233182        0.19806015        0.00000007        0.34046715        0.01132118        0.00000001        0.00009243        0.00000002        0.00798645
      39         -0.561607        2.000000        0.02916386        0.26253100        0.00000008        0.26270114        0.00526746        0.00000002        0.00021913        0.00000001        0.00525633
      40         -0.558711        2.000000        0.05991149        0.25953285        0.00000008        0.22531993        0.00767216        0.00000002        0.00044062        0.00000001        0.00755612
      41         -0.558164        2.000000        0.03622225        0.29952227        0.00000009        0.21187088        0.00404772        0.00000002        0.00025712        0.00000001        0.01008594
      42         -0.557886        2.000000        0.03837062        0.19595298        0.00000007        0.31276751        0.01015334        0.00000001        0.00027361        0.00000002        0.00429165
      43         -0.553499        2.000000        0.02044859        0.25125956        0.00000014        0.26251047        0.01382210        0.00000001        0.00015844        0.00000001        0.01364499
      44         -0.549015        2.000000        0.05943393        0.16785265        0.00000007        0.31453087        0.01341810        0.00000001        0.00048441        0.00000001        0.00595000
      45         -0.548707        2.000000        0.05973594        0.31966454        0.00000023        0.16222766        0.00592478        0.00000002        0.00048680        0.00000001        0.01360766
      46         -0.533228        2.000000        0.03725415        0.28270164        0.00000012        0.21843261        0.01353785        0.00000001        0.00038800        0.00000001        0.01531146
      47         -0.533160        2.000000        0.03718796        0.20462325        0.00000008        0.29732725        0.01754192        0.00000001        0.00038880        0.00000002        0.01086862
      48         -0.532566        2.000000        0.04827624        0.24906735        0.00000021        0.22644334        0.01710458        0.00000001        0.00047454        0.00000001        0.02202647
      49         -0.510277        2.000000        0.01359745        0.23775349        0.00000042        0.30457370        0.01369324        0.00000001        0.00035106        0.00000002        0.01139196
      50         -0.509962        2.000000        0.01348127        0.31029199        0.00000046        0.23178546        0.01138663        0.00000001        0.00035065        0.00000001        0.01380962
      51         -0.486556        2.000000        0.00974677        0.27106923        0.00000103        0.27728570        0.01310011        0.00000001        0.00020847        0.00000002        0.01304754
      52         -0.480703        2.000000        0.01745371        0.28425370        0.00001029        0.27073434        0.01581762        0.00000011        0.00040027        0.00000013        0.01648087
      53         -0.477787        2.000000        0.01160463        0.12139692        0.00001838        0.42366584        0.02132413        0.00000020        0.00034108        0.00000025        0.01264069
      54         -0.477674        2.000000        0.01166237        0.42044923        0.00001089        0.12486138        0.01289054        0.00000013        0.00034151        0.00000014        0.02107588
      55         -0.475793        2.000000        0.00000047        0.00000670        0.53292269        0.00000920        0.00000049        0.00583503        0.00000009        0.00575587        0.00000039
      56         -0.473518        2.000000        0.00000033        0.00000401        0.53157778        0.00001212        0.00000059        0.00582077        0.00000009        0.00636961        0.00000036
      57         -0.473162        2.000000        0.00000030        0.00000807        0.53159473        0.00000563        0.00000038        0.00634545        0.00000012        0.00583758        0.00000049
      58         -0.461222        2.000000        0.00659053        0.29002554        0.00000080        0.26528417        0.01442166        0.00000002        0.00013742        0.00000003        0.01518502
      59         -0.454189        2.000000        0.00719447        0.23534476        0.00000043        0.32352811        0.01473092        0.00000001        0.00013682        0.00000003        0.01780402
      60         -0.453721        2.000000        0.00730061        0.30438660        0.00000129        0.25526082        0.01837818        0.00000005        0.00013842        0.00000002        0.01396469
      61         -0.441181        2.000000        0.01550315        0.26782146        0.00000077        0.26019639        0.01917307        0.00000002        0.00037546        0.00000003        0.01823488
      62         -0.435508        2.000000        0.01496692        0.40061067        0.00000064        0.13807655        0.01403818        0.00000001        0.00037151        0.00000002        0.02322985
      63         -0.435344        2.000000        0.01486314        0.13991200        0.00000235        0.39871256        0.02229366        0.00000005        0.00036848        0.00000004        0.01496708
      64         -0.426727        2.000000        0.00840081        0.25399791        0.00000087        0.27407613        0.02069848        0.00000003        0.00011565        0.00000003        0.01931092
      65         -0.422733        2.000000        0.01106279        0.14686779        0.00000185        0.38120420        0.03519523        0.00000004        0.00017211        0.00000005        0.00449542
      66         -0.422470        2.000000        0.01100827        0.38816990        0.00000141        0.13974136        0.00404966        0.00000002        0.00017009        0.00000005        0.03562070
      67         -0.410343        2.000000        0.00000004        0.00000061        0.50396686        0.00000036        0.00000003        0.01276589        0.00000003        0.00902044        0.00000003
      68         -0.410109        2.000000        0.00000009        0.00000091        0.50393246        0.00000270        0.00000016        0.00903511        0.00000004        0.01274612        0.00000009
      69         -0.402946        2.000000        0.00000005        0.00000089        0.49998122        0.00000068        0.00000004        0.01163990        0.00000004        0.01167100        0.00000007
      70         -0.390468        2.000000        0.00000003        0.00000035        0.48359020        0.00000060        0.00000004        0.01035722        0.00000002        0.01723400        0.00000004
      71         -0.390144        2.000000        0.00000004        0.00000067        0.48348214        0.00000022        0.00000003        0.01715985        0.00000006        0.01044573        0.00000002
      72         -0.388156        2.000000        0.00000003        0.00000044        0.47658667        0.00000050        0.00000004        0.01523069        0.00000004        0.01481882        0.00000003
      73         -0.362070        2.000000        0.00000060        0.00000049        0.56138526        0.00000065        0.00000001        0.01222715        0.00000003        0.01240904        0.00000002
      74         -0.346079        2.000000        0.00000072        0.00000063        0.54104296        0.00000121        0.00000003        0.01634607        0.00000004        0.01407215        0.00000004
      75         -0.346056        2.000000        0.00000064        0.00000085        0.54066178        0.00000059        0.00000003        0.01402784        0.00000004        0.01645468        0.00000002
      76         -0.325398        2.000000        0.00000077        0.00000090        0.51050268        0.00000148        0.00000005        0.01790500        0.00000003        0.01854402        0.00000002
      77         -0.325336        2.000000        0.00000072        0.00000109        0.51003497        0.00000120        0.00000004        0.01493158        0.00000003        0.02225312        0.00000005
      78         -0.324961        2.000000        0.00000116        0.00000283        0.51136461        0.00000209        0.00000005        0.02229787        0.00000009        0.01423578        0.00000004
      79         -0.319856        2.000000        0.16757232        0.29304270        0.00000382        0.29652193        0.00148526        0.00000011        0.00623760        0.00000011        0.00145334
      80         -0.315294        2.000000        0.14900806        0.26374462        0.00021268        0.34826585        0.00288868        0.00000773        0.00487692        0.00000725        0.00534136
      81         -0.315127        2.000000        0.14919384        0.35069278        0.00025471        0.26107700        0.00528406        0.00000870        0.00488969        0.00000908        0.00289149
      82         -0.314549        2.000000        0.00006912        0.00012666        0.52007649        0.00015938        0.00000167        0.01914978        0.00000229        0.01748594        0.00000225
      83         -0.314400        2.000000        0.00006341        0.00014898        0.51979661        0.00011274        0.00000214        0.01734063        0.00000217        0.01931338        0.00000132
      84         -0.303559        2.000000        0.00000202        0.00000279        0.47822870        0.00000290        0.00000009        0.02185515        0.00000006        0.02172935        0.00000009
      85         -0.292338        2.000000        0.16436674        0.29668623        0.00000228        0.30346884        0.00528554        0.00000011        0.00606199        0.00000009        0.00312214
      86         -0.292240        2.000000        0.16331728        0.31875101        0.00000182        0.28310560        0.00643302        0.00000005        0.00598143        0.00000004        0.00256981
      87         -0.291597        2.000000        0.16362716        0.28741357        0.00000431        0.31402209        0.00142791        0.00000024        0.00600198        0.00000020        0.00745538
      88         -0.278845        2.000000        0.16212410        0.39351498        0.00000133        0.21974064        0.00537231        0.00000005        0.00654845        0.00000004        0.00121286
      89         -0.278564        2.000000        0.16238726        0.22214158        0.00000135        0.39085159        0.00119553        0.00000005        0.00656530        0.00000001        0.00536482
      90         -0.264890        2.000000        0.15416943        0.31211816        0.00000255        0.31573496        0.00567976        0.00000005        0.00619131        0.00000003        0.00565074
      91         -0.250394        2.000000        0.00000045        0.00000163        0.83723603        0.00000136        0.00000002        0.00090798        0.00000003        0.00087553        0.00000002
      92         -0.245121        2.000000        0.06258950        0.37183484        0.00000605        0.36680704        0.00291313        0.00000001        0.00104030        0.00000001        0.00292418
      93         -0.242855        2.000000        0.00000053        0.00000254        0.82502800        0.00000216        0.00000002        0.00132955        0.00000002        0.00134690        0.00000002
      94         -0.242784        2.000000        0.00000036        0.00000149        0.82478205        0.00000152        0.00000002        0.00134476        0.00000001        0.00133496        0.00000001
      95         -0.235650        2.000000        0.06621306        0.50942890        0.00000216        0.24265880        0.00203076        0.00000001        0.00118135        0.00000000        0.00255725
      96         -0.235324        2.000000        0.06641130        0.23873567        0.00000698        0.51341403        0.00253506        0.00000001        0.00119348        0.00000001        0.00205409
      97         -0.234534        2.000000        0.00000062        0.00000183        0.82655310        0.00000281        0.00000002        0.00093453        0.00000001        0.00079841        0.00000002
      98         -0.234504        2.000000        0.00000027        0.00000094        0.82696018        0.00000127        0.00000001        0.00107211        0.00000001        0.00050446        0.00000001
      99         -0.233708        2.000000        0.00000073        0.00000124        0.82713222        0.00000416        0.00000003        0.00043324        0.00000001        0.00109797        0.00000002
     100         -0.229020        2.000000        0.06401953        0.49700852        0.00000234        0.25221220        0.00207478        0.00000001        0.00111167        0.00000000        0.00304884
     101         -0.228762        2.000000        0.07610264        0.47304441        0.00000380        0.27929988        0.00254822        0.00000001        0.00191890        0.00000001        0.00270627
     102         -0.228230        2.000000        0.07365674        0.15346146        0.00000653        0.59795288        0.00319475        0.00000001        0.00175579        0.00000002        0.00203950
     103         -0.215259        2.000000        0.00000011        0.00000185        0.84499026        0.00000058        0.00000000        0.00034563        0.00000001        0.00025301        0.00000000
     104         -0.214937        2.000000        0.00000055        0.00000198        0.84505226        0.00000202        0.00000002        0.00025331        0.00000002        0.00033630        0.00000001
     105         -0.208937        2.000000        0.00000035        0.00000073        0.84911133        0.00000079        0.00000002        0.00041676        0.00000001        0.00041599        0.00000001
     106         -0.191152        2.000000        0.13145985        0.35387214        0.00000285        0.35854145        0.00362191        0.00000003        0.00710356        0.00000002        0.00385012
     107         -0.186114        2.000000        0.10172580        0.30703113        0.00000198        0.41782631        0.00261594        0.00000002        0.00423483        0.00000002        0.00286458
     108         -0.185902        2.000000        0.10165979        0.42159337        0.00000159        0.30320573        0.00299259        0.00000009        0.00423201        0.00000003        0.00249928
     109         -0.110690        0.000000        0.00000010        0.00000027        0.27389912        0.00000013        0.00000003        0.04537963        0.00000012        0.05488535        0.00000002
     110         -0.110406        0.000000        0.00000013        0.00000029        0.27398239        0.00000021        0.00000006        0.05485119        0.00000016        0.04541429        0.00000003
     111         -0.087662        0.000000        0.00000004        0.00000039        0.37527015        0.00000017        0.00000004        0.04506991        0.00000007        0.04449617        0.00000003
     112         -0.083644        0.000000        0.00000011        0.00000030        0.30306105        0.00000018        0.00000005        0.04679389        0.00000012        0.04855583        0.00000003
     113         -0.075572        0.000000        0.00000005        0.00000038        0.33301026        0.00000009        0.00000004        0.04938049        0.00000009        0.04806951        0.00000005
     114         -0.074911        0.000000        0.00000006        0.00000021        0.35637730        0.00000020        0.00000004        0.04273970        0.00000006        0.04810530        0.00000002
     115         -0.074665        0.000000        0.00000013        0.00000090        0.35570895        0.00000026        0.00000006        0.04820244        0.00000007        0.04282597        0.00000005
     116         -0.064640        0.000000        0.00000005        0.00000034        0.37797990        0.00000012        0.00000007        0.04187856        0.00000007        0.04723816        0.00000004
     117         -0.064464        0.000000        0.00000007        0.00000039        0.37778935        0.00000020        0.00000006        0.04731481        0.00000007        0.04185275        0.00000005
     118          0.021466        0.000000        0.00000010        0.00000033        0.43714906        0.00000008        0.00000006        0.03823077        0.00000012        0.03835533        0.00000007
     119          0.030597        0.000000        0.00000012        0.00000021        0.43767672        0.00000010        0.00000004        0.02598138        0.00000011        0.04910979        0.00000009
     120          0.030747        0.000000        0.00000013        0.00000055        0.43749541        0.00000014        0.00000007        0.04930208        0.00000023        0.02575307        0.00000003
     121          0.037534        0.000000        0.00000020        0.00000032        0.41962641        0.00000016        0.00000011        0.03803650        0.00000017        0.03841989        0.00000008
     122          0.042572        0.000000        0.00000014        0.00000030        0.42613028        0.00000016        0.00000007        0.04058449        0.00000015        0.03350520        0.00000006
     123          0.042668        0.000000        0.00000011        0.00000031        0.42604260        0.00000012        0.00000007        0.03347754        0.00000012        0.04057224        0.00000011
     124          0.060598        0.000000        0.25288379        0.03150687        0.00000004        0.05784600        0.01115512        0.00000002        0.02673966        0.00000001        0.00631417
     125          0.060976        0.000000        0.25262032        0.02613521        0.00000006        0.05849337        0.01043764        0.00000002        0.02764865        0.00000001        0.00505725
     126          0.062217        0.000000        0.25310974        0.07173107        0.00000018        0.01378490        0.00288792        0.00000003        0.02749173        0.00000009        0.01318000
     127          0.071047        0.000000        0.23097487        0.04906840        0.00000010        0.04359108        0.02410582        0.00000003        0.03238585        0.00000001        0.02208352
     128          0.075095        0.000000        0.25591761        0.07475808        0.00000009        0.03972958        0.01380627        0.00000002        0.02727182        0.00000001        0.01881849
     129          0.075527        0.000000        0.25644260        0.03736727        0.00000013        0.07727014        0.01779220        0.00000004        0.02725259        0.00000001        0.01485271
     130          0.114011        0.000000        0.16759936        0.04124692        0.00000517        0.06513038        0.07461289        0.00000019        0.01936709        0.00000026        0.03675838
     131          0.114122        0.000000        0.15197508        0.08365419        0.00000378        0.02640867        0.01813381        0.00000018        0.02061152        0.00000022        0.10432685
     132          0.114618        0.000000        0.13028249        0.04110920        0.00003044        0.07374158        0.09321675        0.00000123        0.02264010        0.00000160        0.04773224
     133          0.117490        0.000000        0.00000052        0.00000070        0.54104542        0.00000051        0.00000034        0.02360782        0.00000032        0.02275333        0.00000050
     134          0.117558        0.000000        0.00000147        0.00000175        0.54218754        0.00000176        0.00000170        0.02311418        0.00000064        0.02283709        0.00000141
     135          0.118014        0.000000        0.00000873        0.00000655        0.54147031        0.00000592        0.00000455        0.02245587        0.00000143        0.02373896        0.00000747
     136          0.119651        0.000000        0.08634262        0.12961735        0.00001189        0.02577813        0.03070759        0.00000043        0.01551411        0.00000052        0.11440197
     137          0.119931        0.000000        0.08333288        0.02781513        0.00000478        0.12743478        0.11762320        0.00000018        0.01600576        0.00000024        0.03115830
     138          0.129308        0.000000        0.00624020        0.12144749        0.00000116        0.10346938        0.04204934        0.00000003        0.00441394        0.00000005        0.04850964
     139          0.134206        0.000000        0.05811900        0.13046745        0.00000138        0.06254964        0.03940642        0.00000007        0.00968047        0.00000007        0.07385537
     140          0.134442        0.000000        0.06154978        0.05322078        0.00000067        0.13615388        0.07772219        0.00000004        0.00957781        0.00000004        0.03578140
     141          0.141315        0.000000        0.13212077        0.12420538        0.00000021        0.09198614        0.02354751        0.00000004        0.00735054        0.00000002        0.06009335
     142          0.141384        0.000000        0.12599310        0.09461068        0.00000047        0.12659723        0.05650020        0.00000002        0.00712183        0.00000002        0.02541137
     143          0.143961        0.000000        0.22922936        0.08145005        0.00000033        0.08777330        0.03865615        0.00000005        0.01163390        0.00000001        0.03242849
     144          0.155303        0.000000        0.10756189        0.07138219        0.00000021        0.11629342        0.05267775        0.00000002        0.01840175        0.00000002        0.04640552