# Projected DOS for atomic kind Li at iteration step i = 0, E(Fermi) =    -0.138963 a.u.
#     MO Eigenvalue [a.u.]      Occupation                 s                py                pz                px
       1         -2.017159        1.000000        0.98520598        0.00000000        0.00000000        0.00000001
       2         -0.884958        1.000000        0.08311283        0.00000000        0.00000040        0.00000053
       3         -0.867986        1.000000        0.00000000        0.00090405        0.00064986        0.00059357
       4         -0.865418        1.000000        0.00000084        0.00010057        0.00065931        0.00150400
       5         -0.864970        1.000000        0.00001607        0.00120838        0.00091546        0.00012334
       6         -0.831737        1.000000        0.00013428        0.00000004        0.00000020        0.00000027
       7         -0.831541        1.000000        0.00000034        0.00000003        0.00000002        0.00000021
       8         -0.830655        1.000000        0.00000245        0.00000055        0.00000004        0.00000026
       9         -0.828951        1.000000        0.00000018        0.00000000        0.00000001        0.00000076
      10         -0.828844        1.000000        0.00000188        0.00000001        0.00000037        0.00000042
      11         -0.795418        1.000000        0.00000034        0.00000176        0.00000115        0.00000099
      12         -0.793711        1.000000        0.00000072        0.00000089        0.00000003        0.00000055
      13         -0.792191        1.000000        0.00000077        0.00000004        0.00000048        0.00000005
      14         -0.761823        1.000000        0.00000194        0.00000027        0.00000025        0.00000000
      15         -0.761316        1.000000        0.00000044        0.00000032        0.00000027        0.00000051
      16         -0.760693        1.000000        0.00000014        0.00000000        0.00000014        0.00000005
      17         -0.759895        1.000000        0.00000046        0.00000000        0.00000000        0.00000000
      18         -0.716039        1.000000        0.00000068        0.00000005        0.00000000        0.00000000
      19         -0.715240        1.000000        0.00000080        0.00000000        0.00000000        0.00000000
      20         -0.715083        1.000000        0.00000031        0.00000002        0.00000000        0.00000000
      21         -0.714429        1.000000        0.00000005        0.00000002        0.00000000        0.00000002
      22         -0.714103        1.000000        0.00000005        0.00000005        0.00000000        0.00000004
      23         -0.697704        1.000000        0.00000002        0.00000000        0.00000004        0.00000000
      24         -0.697263        1.000000        0.00000076        0.00000001        0.00000004        0.00000002
      25         -0.696901        1.000000        0.00000039        0.00000000        0.00000000        0.00000000
      26         -0.696198        1.000000        0.00000040        0.00000002        0.00000003        0.00000000
      27         -0.646026        1.000000        0.00000051        0.00000000        0.00000011        0.00000021
      28         -0.644989        1.000000        0.00000003        0.00000001        0.00000009        0.00000001
      29         -0.644174        1.000000        0.00000023        0.00000009        0.00000000        0.00000007
      30         -0.641159        1.000000        0.00000003        0.00000006        0.00000023        0.00000002
      31         -0.640015        1.000000        0.00000015        0.00000052        0.00000000        0.00000046
      32         -0.637289        1.000000        0.00000000        0.00000847        0.00000761        0.00000518
      33         -0.634309        1.000000        0.00000010        0.00001016        0.00001086        0.00000002
      34         -0.634002        1.000000        0.00000000        0.00000374        0.00000328        0.00001269
      35         -0.595865        1.000000        0.00000035        0.00000001        0.00000002        0.00000004
      36         -0.594963        1.000000        0.00000002        0.00000017        0.00000006        0.00000000
      37         -0.593966        1.000000        0.00000008        0.00000001        0.00000008        0.00000000
      38         -0.560725        1.000000        0.00000012        0.00000000        0.00000002        0.00000003
      39         -0.559130        1.000000        0.00000042        0.00000000        0.00000007        0.00000000
      40         -0.557705        1.000000        0.00000006        0.00000003        0.00000001        0.00000000
      41         -0.557448        1.000000        0.00000014        0.00000010        0.00000000        0.00000000
      42         -0.556652        1.000000        0.00000029        0.00000000        0.00000001        0.00000000
      43         -0.556413        1.000000        0.00000004        0.00000000        0.00000002        0.00000002
      44         -0.555992        1.000000        0.00000015        0.00000004        0.00000000        0.00000005
      45         -0.552456        1.000000        0.00000003        0.00000000        0.00000000        0.00000001
      46         -0.538109        1.000000        0.00051442        0.00000000        0.00000002        0.00000000
      47         -0.497903        1.000000        0.00000002        0.00000000        0.00000000        0.00000004
      48         -0.496522        1.000000        0.00000012        0.00000001        0.00000002        0.00000000
      49         -0.495620        1.000000        0.00000001        0.00000002        0.00000000        0.00000002
      50         -0.495271        1.000000        0.00000015        0.00000006        0.00000006        0.00000003
      51         -0.473553        1.000000        0.00000028        0.00000000        0.00000003        0.00000001
      52         -0.472970        1.000000        0.00000001        0.00000000        0.00000005        0.00000004
      53         -0.470235        1.000000        0.00000011        0.00000001        0.00000004        0.00000032
      54         -0.469352        1.000000        0.00000004        0.00000007        0.00000004        0.00000003
      55         -0.468110        1.000000        0.00000005        0.00000104        0.00000004        0.00000002
      56         -0.460786        1.000000        0.00000019        0.00000878        0.00000321        0.00000382
      57         -0.457826        1.000000        0.00000006        0.00001241        0.00000899        0.00000388
      58         -0.457365        1.000000        0.00000003        0.00000079        0.00001013        0.00002074
      59         -0.435825        1.000000        0.00000150        0.00000393        0.00000040        0.00000100
      60         -0.435219        1.000000        0.00009290        0.00000004        0.00000004        0.00000001
      61         -0.433897        1.000000        0.00499529        0.00000003        0.00000016        0.00000053
      62         -0.433279        1.000000        0.00003814        0.00000001        0.00000102        0.00000009
      63         -0.412861        1.000000        0.00000000        0.00156710        0.00036312        0.00098101
      64         -0.412356        1.000000        0.00000005        0.00080548        0.00151803        0.00074000
      65         -0.412038        1.000000        0.00000006        0.00000041        0.00001824        0.00000023
      66         -0.411790        1.000000        0.00000000        0.00039045        0.00080493        0.00007672
      67         -0.411186        1.000000        0.00000001        0.00003753        0.00014758        0.00000765
      68         -0.410533        1.000000        0.00000034        0.00038673        0.00139283        0.00506935
      69         -0.410067        1.000000        0.00000079        0.00386825        0.00281935        0.00018514
      70         -0.393901        1.000000        0.00000035        0.00000035        0.00000010        0.00000016
      71         -0.393493        1.000000        0.00000328        0.00000037        0.00000000        0.00000000
      72         -0.392174        1.000000        0.00000019        0.00000002        0.00000001        0.00000015
      73         -0.391003        1.000000        0.00000001        0.00000004        0.00000000        0.00000009
      74         -0.390438        1.000000        0.00000020        0.00000013        0.00000029        0.00000013
      75         -0.379641        1.000000        0.00000019        0.00000001        0.00000000        0.00000001
      76         -0.379307        1.000000        0.00000001        0.00000002        0.00000000        0.00000006
      77         -0.378130        1.000000        0.00000008        0.00000050        0.00000000        0.00000023
      78         -0.377223        1.000000        0.00000021        0.00000001        0.00000000        0.00000002
      79         -0.372435        1.000000        0.00000015        0.00000003        0.00000000        0.00000002
      80         -0.371511        1.000000        0.00000764        0.00000004        0.00000044        0.00000032
      81         -0.370517        1.000000        0.00000006        0.00000015        0.00000004        0.00000040
      82         -0.370072        1.000000        0.00000012        0.00000001        0.00000018        0.00000009
      83         -0.369681        1.000000        0.00000065        0.00000015        0.00000002        0.00000012
      84         -0.368956        1.000000        0.00000014        0.00000014        0.00000004        0.00000019
      85         -0.367054        1.000000        0.00000000        0.00000048        0.00000001        0.00000048
      86         -0.366748        1.000000        0.00000004        0.00000013        0.00000005        0.00000217
      87         -0.351890        1.000000        0.00000013        0.00000002        0.00000011        0.00000000
      88         -0.351250        1.000000        0.00000014        0.00000004        0.00000005        0.00000014
      89         -0.349457        1.000000        0.00000000        0.00000011        0.00000013        0.00000014
      90         -0.348118        1.000000        0.00000008        0.00000016        0.00000025        0.00000001
      91         -0.322827        1.000000        0.00000004        0.00000334        0.00000533        0.00000004
      92         -0.320931        1.000000        0.00000016        0.00000336        0.00000222        0.00000004
      93         -0.320374        1.000000        0.00000007        0.00000035        0.00000085        0.00000000
      94         -0.316131        1.000000        0.00000104        0.00000000        0.00000000        0.00000000
      95         -0.315832        1.000000        0.00000011        0.00000000        0.00000000        0.00000001
      96         -0.313304        1.000000        0.00000013        0.00000000        0.00000000        0.00000001
      97         -0.312823        1.000000        0.00000033        0.00000001        0.00000006        0.00000000
      98         -0.312308        1.000000        0.00000291        0.00000005        0.00000001        0.00000000
      99         -0.305574        1.000000        0.00000011        0.00000002        0.00000004        0.00000007
     100         -0.304108        1.000000        0.00000004        0.00000016        0.00000009        0.00000001
     101         -0.303612        1.000000        0.00000011        0.00000001        0.00000000        0.00000006
     102         -0.301769        1.000000        0.00000003        0.00000053        0.00000010        0.00000052
     103         -0.301351        1.000000        0.00000012        0.00000009        0.00000118        0.00000118
     104         -0.300946        1.000000        0.00000003        0.00000013        0.00000000        0.00000297
     105         -0.299874        1.000000        0.00000109        0.00000007        0.00000007        0.00000002
     106         -0.299281        1.000000        0.00000002        0.00000694        0.00000054        0.00000044
     107         -0.298742        1.000000        0.00000005        0.00000245        0.00000502        0.00000361
     108         -0.245087        1.000000        0.00000638        0.00000007        0.00000004        0.00000037
     109         -0.244465        1.000000        0.00000418        0.00000002        0.00000008        0.00000023
     110         -0.243661        1.000000        0.00000057        0.00000045        0.00000000        0.00000001
     111         -0.243294        1.000000        0.00000038        0.00000003        0.00000000        0.00000008
     112         -0.242553        1.000000        0.00000181        0.00000046        0.00000020        0.00000011
     113         -0.239816        1.000000        0.00000476        0.00000000        0.00000072        0.00000002
     114         -0.238955        1.000000        0.00000094        0.00000003        0.00000025        0.00000004
     115         -0.236863        1.000000        0.00003010        0.00000045        0.00000001        0.00000001
     116         -0.235703        1.000000        0.00000073        0.00000002        0.00000012        0.00000001
     117         -0.199931        1.000000        0.00000054        0.00000004        0.00000101        0.00000504
     118         -0.197778        1.000000        0.00000068        0.00000040        0.00000270        0.00000007
     119         -0.196111        1.000000        0.00000101        0.00000096        0.00000226        0.00000101
     120         -0.193454        1.000000        0.00000373        0.00001147        0.00002392        0.00000033
     121         -0.192998        1.000000        0.00000024        0.00000035        0.00000017        0.00000029
     122         -0.138963        1.000000        0.00000147        0.00012536        0.00006385        0.00001930
     123         -0.133868        0.000000        0.00000434        0.00007275        0.00010139        0.00000000
     124         -0.133704        0.000000        0.00000233        0.00002691        0.00001704        0.00006529
     125         -0.098058        0.000000        0.00003405        0.00000115        0.00000057        0.00000000
     126         -0.097414        0.000000        0.00008299        0.00000429        0.00000080        0.00000060
     127         -0.092599        0.000000        0.00560271        0.00000025        0.00000004        0.00000099
     128         -0.089301        0.000000        0.47814105        0.00000607        0.00000015        0.00001067
     129         -0.061687        0.000000        0.00000011        0.00003375        0.00000109        0.00003815
     130         -0.059344        0.000000        0.00002029        0.00006413        0.00002478        0.00000091
     131         -0.056403        0.000000        0.00011660        0.00000970        0.00000019        0.00000157
     132         -0.055518        0.000000        0.00002014        0.00000097        0.00003130        0.00000198
     133         -0.053651        0.000000        0.00024013        0.00000384        0.00005096        0.00000056
     134         -0.052401        0.000000        0.00006491        0.00001579        0.00002881        0.00000356
     135         -0.051534        0.000000        0.00000640        0.00000241        0.00000010        0.00000634
     136         -0.050011        0.000000        0.00000148        0.00000268        0.00000046        0.00003036
     137         -0.004423        0.000000        0.00000004        0.19301892        0.12766358        0.21488351
     138         -0.003169        0.000000        0.00000617        0.15623353        0.07831113        0.29366460
     139         -0.003016        0.000000        0.00000156        0.20309111        0.33580604        0.00257478
     140         -0.002232        0.000000        0.00000005        0.00605913        0.02202458        0.02039387
     141         -0.000613        0.000000        0.00000002        0.00528812        0.00208269        0.00770110
     142         -0.000200        0.000000        0.00000418        0.00177171        0.00296239        0.02936072
     143          0.002804        0.000000        0.00000016        0.00049058        0.00062270        0.00019389
     144          0.006045        0.000000        0.00000455        0.00304500        0.00004672        0.00025430
     145          0.016132        0.000000        0.00000360        0.00008562        0.00000590        0.00012311
     146          0.017616        0.000000        0.00000021        0.00002462        0.00000835        0.00000187
     147          0.018635        0.000000        0.00000151        0.00000000        0.00006456        0.00026131
     148          0.021107        0.000000        0.00000639        0.00004199        0.00003466        0.00000062
     149          0.042359        0.000000        0.00000229        0.00005387        0.00000009        0.00004489
     150          0.044794        0.000000        0.00000010        0.00002755        0.00004058        0.00000525
     151          0.045754        0.000000        0.00000110        0.00001374        0.00000990        0.00001047
     152          0.045851        0.000000        0.00000858        0.00002549        0.00000047        0.00000787
     153          0.059814        0.000000        0.00000008        0.00001564        0.00000107        0.00000192
     154          0.061469        0.000000        0.00000632        0.00000027        0.00001866        0.00000123
     155          0.062914        0.000000        0.00000251        0.00003926        0.00001418        0.00000007
     156          0.110202        0.000000        0.00000008        0.00095459        0.00045444        0.00082180
     157          0.114265        0.000000        0.00000042        0.00025613        0.00064581        0.00157627
     158          0.114881        0.000000        0.00000002        0.00116118        0.00123129        0.00015203
     159          0.137527        0.000000        0.00011595        0.00000233        0.00000090        0.00001984
     160          0.139545        0.000000        0.00000007        0.00000920        0.00000011        0.00000276
     161          0.139969        0.000000        0.00000946        0.00000016        0.00001219        0.00000006
     162          0.142220        0.000000        0.00000604        0.00000103        0.00000116        0.00000000
     163          0.143433        0.000000        0.00000893        0.00000011        0.00000521        0.00002471
     164          0.147920        0.000000        0.00000015        0.00003918        0.00000057        0.00000871
     165          0.148813        0.000000        0.00000090        0.00000048        0.00001089        0.00000957
     166          0.157333        0.000000        0.00000208        0.00006342        0.00000304        0.00000417
     167          0.173036        0.000000        0.00002140        0.00003612        0.00000069        0.00000366
     168          0.174735        0.000000        0.00001254        0.00006818        0.00002043        0.00006648
     169          0.175098        0.000000        0.00002637        0.00033489        0.00010717        0.00000472
     170          0.176371        0.000000        0.00003651        0.00006296        0.00015451        0.00028226
     171          0.179494        0.000000        0.00001547        0.00013811        0.00002216        0.00021405
     172          0.182036        0.000000        0.00026953        0.00040861        0.00000100        0.00022548
     173          0.181111        0.000000        0.00002637        0.00003650        0.00075159        0.00002162
     174          0.187488        0.000000        0.07230145        0.00004537        0.00000053        0.00000640
     175          0.189642        0.000000        0.07647030        0.00000424        0.00000002        0.00003346
     176          0.190873        0.000000        0.00023533        0.00000944        0.00000082        0.00004097
     177          0.191612        0.000000        0.00138454        0.00000071        0.00003647        0.00000182
     178          0.194473        0.000000        0.00084520        0.00001137        0.00000001        0.00001272
     179          0.195717        0.000000        0.00000178        0.00000064        0.00000298        0.00003025
     180          0.207433        0.000000        0.00000242        0.06475430        0.03473450        0.02309041
     181          0.209028        0.000000        0.00001823        0.01526386        0.00746684        0.09960085
     182          0.209280        0.000000        0.00001195        0.04272795        0.07960852        0.00000390
     183          0.216521        0.000000        0.00001417        0.00003183        0.00008316        0.00007339
     184          0.218690        0.000000        0.00000309        0.00001905        0.00000963        0.00001303
     185          0.220284        0.000000        0.00000022        0.00000059        0.00000087        0.00000613
     186          0.222443        0.000000        0.00000265        0.00000219        0.00000139        0.00001667
     187          0.224849        0.000000        0.00000054        0.00000256        0.00000000        0.00000288
     188          0.229065        0.000000        0.00001831        0.00001800        0.00001898        0.00002637
     189          0.230781        0.000000        0.00008375        0.00000071        0.00000031        0.00001332
     190          0.231938        0.000000        0.00073722        0.00000019        0.00000469        0.00000098
     191          0.232700        0.000000        0.00023216        0.00000140        0.00000147        0.00000024
     192          0.235834        0.000000        0.00000000        0.00009928        0.00079732        0.00000063
     193          0.237094        0.000000        0.00000041        0.00003167        0.00000467        0.00022655
     194          0.238158        0.000000        0.00000253        0.00027104        0.00033332        0.00035916
     195          0.247049        0.000000        0.00000007        0.00000081        0.00000317        0.00000255
     196          0.249708        0.000000        0.00000081        0.00001990        0.00011416        0.00000421
     197          0.251419        0.000000        0.00000011        0.00003808        0.00002431        0.00000264
     198          0.252977        0.000000        0.00000009        0.00001030        0.00001518        0.00006017
     199          0.256084        0.000000        0.00000005        0.00004781        0.00000036        0.00000331
     200          0.274153        0.000000        0.00000018        0.00000315        0.00000028        0.00004970
     201          0.275610        0.000000        0.00000022        0.00003597        0.00000949        0.00001454
     202          0.277373        0.000000        0.00000051        0.00015280        0.00001480        0.00010049
     203          0.277765        0.000000        0.00000009        0.00000847        0.00015318        0.00001845
     204          0.286730        0.000000        0.00000002        0.00010327        0.00006279        0.00001278
     205          0.293463        0.000000        0.00000004        0.00003240        0.00017598        0.00006855
     206          0.294691        0.000000        0.00000005        0.00015827        0.00000001        0.00012010
     207          0.320916        0.000000        0.00000003        0.00000494        0.00000006        0.00000022
     208          0.321797        0.000000        0.00000087        0.00000037        0.00000010        0.00000142
     209          0.322788        0.000000        0.00000029        0.00000332        0.00000061        0.00000267
     210          0.323952        0.000000        0.00000015        0.00000575        0.00000703        0.00000000
     211          0.324948        0.000000        0.00000028        0.00001425        0.00000302        0.00000577
     212          0.327396        0.000000        0.00000002        0.00000053        0.00000560        0.00000299
     213          0.332113        0.000000        0.00006496        0.00000033        0.00000001        0.00000041
     214          0.334992        0.000000        0.00000617        0.00000001        0.00000001        0.00000065
     215          0.335374        0.000000        0.00000731        0.00000019        0.00000000        0.00000026
     216          0.337330        0.000000        0.00000360        0.00000068        0.00000012        0.00000032
     217          0.337812        0.000000        0.00003225        0.00000032        0.00000000        0.00000053
     218          0.342942        0.000000        0.00000302        0.00000000        0.00000109        0.00000000
     219          0.343523        0.000000        0.00000212        0.00000008        0.00000009        0.00000053
     220          0.344557        0.000000        0.00002834        0.00000011        0.00000025        0.00000004
     221          0.344821        0.000000        0.00000127        0.00000007        0.00000098        0.00000017
     222          0.346258        0.000000        0.00011261        0.00000164        0.00000029        0.00000020
     223          0.347125        0.000000        0.00001436        0.00000016        0.00000084        0.00000099
     224          0.348629        0.000000        0.00000369        0.00000004        0.00000004        0.00000014
     225          0.351099        0.000000        0.00000103        0.00000224        0.00000083        0.00000119
     226          0.353527        0.000000        0.00000152        0.00000173        0.00000048        0.00000136
     227          0.397726        0.000000        0.00000003        0.00000005        0.00000012        0.00000000
     228          0.399963        0.000000        0.00000060        0.00000021        0.00000031        0.00000001
     229          0.406495        0.000000        0.00000203        0.00000001        0.00000025        0.00000022
     230          0.408541        0.000000        0.00000082        0.00000003        0.00000191        0.00004885
     231          0.411442        0.000000        0.00000038        0.00001318        0.00001607        0.00000501
     232          0.412748        0.000000        0.00000372        0.00000233        0.00000161        0.00000051
     233          0.414710        0.000000        0.00000870        0.00004304        0.00007362        0.00000153
     234          0.415630        0.000000        0.00000092        0.00000580        0.00002238        0.00000285
     235          0.421090        0.000000        0.00047522        0.00000001        0.00000201        0.00000137
     236          0.423432        0.000000        0.00000460        0.00000001        0.00000001        0.00000053
     237          0.424171        0.000000        0.00001130        0.00000016        0.00000026        0.00000011
     238          0.426634        0.000000        0.00000603        0.00000350        0.00000053        0.00000000
     239          0.429570        0.000000        0.00000330        0.00000009        0.00000001        0.00000060
     240          0.433388        0.000000        0.00001001        0.00003624        0.00000209        0.00001917
     241          0.433932        0.000000        0.00000207        0.00000476        0.00000053        0.00004024
     242          0.435203        0.000000        0.00000095        0.00000252        0.00000242        0.00000142
     243          0.435876        0.000000        0.00000004        0.00000163        0.00000651        0.00001128
     244          0.443892        0.000000        0.00000170        0.00008658        0.00001076        0.00000070
     245          0.445118        0.000000        0.00000009        0.00033326        0.00024238        0.00004406
     246          0.445698        0.000000        0.00000071        0.00010509        0.00006880        0.00002544
     247          0.448945        0.000000        0.00000054        0.00010683        0.00012382        0.00173513
     248          0.449229        0.000000        0.00000027        0.00054619        0.00069556        0.00000272
     249          0.450498        0.000000        0.00000037        0.00000927        0.00006958        0.00002746
     250          0.452098        0.000000        0.00000333        0.00001684        0.00003028        0.00003677
     251          0.453850        0.000000        0.00001165        0.00000006        0.00000107        0.00000072
     252          0.457779        0.000000        0.00000021        0.00001356        0.00000436        0.00002174
     253          0.459911        0.000000        0.00005339        0.00000105        0.00000000        0.00000199
     254          0.460232        0.000000        0.00000437        0.00001124        0.00002937        0.00000002
     255          0.477936        0.000000        0.00049232        0.00000064        0.00000004        0.00001349
     256          0.478909        0.000000        0.00023068        0.00003161        0.00002188        0.00002038
     257          0.479795        0.000000        0.00000796        0.00000722        0.00000001        0.00000020
     258          0.481320        0.000000        0.00004517        0.00000503        0.00001734        0.00004597
     259          0.482822        0.000000        0.00000036        0.00001510        0.00002633        0.00000054