# Projected DOS for atomic kind Li at iteration step i = 0, E(Fermi) =    -0.111943 a.u.
#     MO Eigenvalue [a.u.]      Occupation                 s                py                pz                px
       1         -1.991192        1.000000        0.99007266        0.00000162        0.00003750        0.00000052
       2         -0.870755        1.000000        0.07152471        0.00000558        0.00003852        0.00014800
       3         -0.843481        1.000000        0.00344687        0.00025623        0.00043889        0.00187707
       4         -0.840338        1.000000        0.00405724        0.00252159        0.00075935        0.00086582
       5         -0.836999        1.000000        0.00332036        0.00051112        0.00052752        0.00043132
       6         -0.809742        1.000000        0.00252200        0.00001519        0.00000028        0.00000095
       7         -0.806398        1.000000        0.00045154        0.00000666        0.00007314        0.00000058
       8         -0.803326        1.000000        0.00000538        0.00000685        0.00000067        0.00001606
       9         -0.798697        1.000000        0.00000666        0.00002967        0.00001075        0.00000010
      10         -0.796846        1.000000        0.00004587        0.00007841        0.00004213        0.00004873
      11         -0.771068        1.000000        0.00000233        0.00000278        0.00000095        0.00000498
      12         -0.765948        1.000000        0.00005043        0.00000056        0.00000444        0.00000030
      13         -0.762025        1.000000        0.00000182        0.00000555        0.00000675        0.00002442
      14         -0.736820        1.000000        0.00023500        0.00006423        0.00003506        0.00000045
      15         -0.732596        1.000000        0.00003125        0.00000012        0.00003997        0.00000090
      16         -0.729900        1.000000        0.00000602        0.00003553        0.00000048        0.00001203
      17         -0.728915        1.000000        0.00004961        0.00000813        0.00004298        0.00000445
      18         -0.690210        1.000000        0.00000511        0.00001143        0.00000142        0.00000958
      19         -0.688985        1.000000        0.00000118        0.00000388        0.00000409        0.00000007
      20         -0.686422        1.000000        0.00000978        0.00000157        0.00004546        0.00000015
      21         -0.685222        1.000000        0.00000352        0.00000031        0.00008307        0.00000234
      22         -0.684976        1.000000        0.00001537        0.00001602        0.00004915        0.00000612
      23         -0.670253        1.000000        0.00000460        0.00004091        0.00001504        0.00001520
      24         -0.667612        1.000000        0.00000371        0.00000022        0.00000131        0.00000926
      25         -0.666554        1.000000        0.00000401        0.00000003        0.00000239        0.00000049
      26         -0.664487        1.000000        0.00000015        0.00000940        0.00008956        0.00000351
      27         -0.621814        1.000000        0.00001105        0.00001489        0.00002145        0.00000700
      28         -0.618267        1.000000        0.00000054        0.00000496        0.00001507        0.00000028
      29         -0.614926        1.000000        0.00000718        0.00003901        0.00000900        0.00001039
      30         -0.612772        1.000000        0.00000412        0.00000001        0.00007363        0.00000761
      31         -0.609536        1.000000        0.00000452        0.00000056        0.00001802        0.00000117
      32         -0.608324        1.000000        0.00000431        0.00001031        0.00004848        0.00000000
      33         -0.606424        1.000000        0.00000314        0.00000403        0.00002505        0.00000072
      34         -0.604259        1.000000        0.00000075        0.00000015        0.00003017        0.00001318
      35         -0.569065        1.000000        0.00000936        0.00000363        0.00009395        0.00000212
      36         -0.566037        1.000000        0.00000200        0.00000059        0.00000231        0.00000010
      37         -0.563982        1.000000        0.00000246        0.00000018        0.00002008        0.00000001
      38         -0.538879        1.000000        0.00000865        0.00002536        0.00000582        0.00000158
      39         -0.532444        1.000000        0.00000176        0.00000274        0.00005398        0.00000143
      40         -0.531148        1.000000        0.00001519        0.00000130        0.00000645        0.00000078
      41         -0.529506        1.000000        0.00000594        0.00000199        0.00000520        0.00000001
      42         -0.527876        1.000000        0.00000798        0.00000040        0.00008877        0.00000004
      43         -0.525273        1.000000        0.00000094        0.00000396        0.00000689        0.00001038
      44         -0.524676        1.000000        0.00000180        0.00000002        0.00002883        0.00000000
      45         -0.522663        1.000000        0.00000642        0.00000022        0.00000199        0.00000262
      46         -0.512263        1.000000        0.00070264        0.00000053        0.00002368        0.00000082
      47         -0.474236        1.000000        0.00001623        0.00000372        0.00006745        0.00002049
      48         -0.472304        1.000000        0.00001656        0.00000522        0.00011633        0.00000002
      49         -0.468801        1.000000        0.00000255        0.00000018        0.00000890        0.00000000
      50         -0.465934        1.000000        0.00000430        0.00000783        0.00002394        0.00000384
      51         -0.449345        1.000000        0.00004127        0.00000128        0.00022925        0.00000209
      52         -0.446873        1.000000        0.00000377        0.00000002        0.00008255        0.00000002
      53         -0.444203        1.000000        0.00005458        0.00000373        0.00012501        0.00000110
      54         -0.441569        1.000000        0.00000264        0.00000419        0.00002169        0.00000000
      55         -0.438853        1.000000        0.00000639        0.00001049        0.00001370        0.00000236
      56         -0.431897        1.000000        0.00001109        0.00000025        0.00001340        0.00000221
      57         -0.429847        1.000000        0.00005014        0.00000068        0.00004838        0.00000432
      58         -0.428267        1.000000        0.00000075        0.00000344        0.00004112        0.00003077
      59         -0.411083        1.000000        0.00427282        0.00007243        0.00174073        0.00008084
      60         -0.407765        1.000000        0.00001430        0.00000808        0.00001700        0.00000084
      61         -0.407200        1.000000        0.00025378        0.00000073        0.00004643        0.00001915
      62         -0.402694        1.000000        0.00002983        0.00000877        0.00000000        0.00000251
      63         -0.390149        1.000000        0.00006318        0.00185009        0.00014445        0.00374735
      64         -0.386771        1.000000        0.00012763        0.00000006        0.00327716        0.00003967
      65         -0.385794        1.000000        0.00004293        0.00000081        0.00080298        0.00015614
      66         -0.384110        1.000000        0.00000667        0.00003723        0.00016629        0.00021611
      67         -0.383295        1.000000        0.00000344        0.00046696        0.00040184        0.00030261
      68         -0.381724        1.000000        0.00003328        0.00053915        0.00356748        0.00023408
      69         -0.378893        1.000000        0.00001779        0.00576095        0.00036812        0.00263385
      70         -0.368648        1.000000        0.00000276        0.00000189        0.00000180        0.00013308
      71         -0.366628        1.000000        0.00003134        0.00001434        0.00001871        0.00007158
      72         -0.364555        1.000000        0.00002205        0.00000009        0.00001436        0.00000408
      73         -0.362174        1.000000        0.00000057        0.00002280        0.00002732        0.00000118
      74         -0.361627        1.000000        0.00000450        0.00001441        0.00003569        0.00000208
      75         -0.352573        1.000000        0.00000020        0.00000843        0.00002751        0.00000302
      76         -0.349010        1.000000        0.00000066        0.00000069        0.00001317        0.00000054
      77         -0.348080        1.000000        0.00000294        0.00000586        0.00000268        0.00000862
      78         -0.347442        1.000000        0.00000379        0.00001023        0.00001385        0.00000320
      79         -0.344480        1.000000        0.00000323        0.00002531        0.00000380        0.00000001
      80         -0.343694        1.000000        0.00000469        0.00000057        0.00000570        0.00003433
      81         -0.343037        1.000000        0.00001847        0.00004131        0.00000185        0.00004792
      82         -0.341718        1.000000        0.00000339        0.00000038        0.00001049        0.00000716
      83         -0.341214        1.000000        0.00000357        0.00004519        0.00012561        0.00000146
      84         -0.339845        1.000000        0.00000035        0.00009080        0.00025573        0.00010550
      85         -0.337934        1.000000        0.00000981        0.00002324        0.00000343        0.00000181
      86         -0.336034        1.000000        0.00000920        0.00003102        0.00004526        0.00000960
      87         -0.323723        1.000000        0.00000229        0.00000318        0.00000688        0.00000323
      88         -0.322883        1.000000        0.00000329        0.00000057        0.00004760        0.00000123
      89         -0.319577        1.000000        0.00000568        0.00000027        0.00000398        0.00000543
      90         -0.316857        1.000000        0.00000033        0.00000560        0.00000775        0.00000056
      91         -0.296812        1.000000        0.00000135        0.00000368        0.00009636        0.00000744
      92         -0.293119        1.000000        0.00000003        0.00002785        0.00010147        0.00000286
      93         -0.292278        1.000000        0.00000349        0.00001067        0.00007146        0.00000716
      94         -0.290041        1.000000        0.00000084        0.00000688        0.00005057        0.00000034
      95         -0.288294        1.000000        0.00000055        0.00000574        0.00002058        0.00000452
      96         -0.285601        1.000000        0.00000051        0.00000026        0.00000760        0.00000010
      97         -0.283839        1.000000        0.00000065        0.00000002        0.00004184        0.00000199
      98         -0.282981        1.000000        0.00000670        0.00000219        0.00011392        0.00000561
      99         -0.278257        1.000000        0.00000185        0.00000110        0.00000002        0.00000003
     100         -0.275276        1.000000        0.00000010        0.00000295        0.00003202        0.00001037
     101         -0.274090        1.000000        0.00000142        0.00000000        0.00003399        0.00000324
     102         -0.272424        1.000000        0.00000120        0.00000146        0.00000054        0.00000303
     103         -0.271911        1.000000        0.00000323        0.00000954        0.00004374        0.00000064
     104         -0.271241        1.000000        0.00000035        0.00001193        0.00016513        0.00000111
     105         -0.269876        1.000000        0.00000280        0.00001844        0.00000823        0.00000001
     106         -0.268939        1.000000        0.00000046        0.00000115        0.00006377        0.00000711
     107         -0.267203        1.000000        0.00001163        0.00000105        0.00002416        0.00000930
     108         -0.218864        1.000000        0.00000002        0.00005073        0.00001088        0.00000406
     109         -0.216918        1.000000        0.00000657        0.00003398        0.00046310        0.00000865
     110         -0.216556        1.000000        0.00000041        0.00000021        0.00012394        0.00000001
     111         -0.215769        1.000000        0.00000506        0.00003494        0.00002262        0.00001430
     112         -0.213619        1.000000        0.00000478        0.00000298        0.00057431        0.00000246
     113         -0.211290        1.000000        0.00000496        0.00000195        0.00001781        0.00000444
     114         -0.209319        1.000000        0.00000023        0.00000980        0.00011195        0.00000400
     115         -0.205528        1.000000        0.00002244        0.00000315        0.00001486        0.00000567
     116         -0.204479        1.000000        0.00000150        0.00001022        0.00000692        0.00000551
     117         -0.172562        1.000000        0.00000145        0.00001131        0.00001701        0.00000099
     118         -0.169966        1.000000        0.00000185        0.00001582        0.00013122        0.00000457
     119         -0.167465        1.000000        0.00000609        0.00000235        0.00077574        0.00001475
     120         -0.162688        1.000000        0.00001075        0.00000750        0.00000103        0.00000182
     121         -0.162061        1.000000        0.00001713        0.00009388        0.00052610        0.00001358
     122         -0.111943        1.000000        0.00000969        0.00009420        0.00009384        0.00002719
     123         -0.106868        0.000000        0.00003384        0.00008207        0.00001335        0.00000321
     124         -0.106037        0.000000        0.00001870        0.00003888        0.00075207        0.00009171
     125         -0.000000        0.000000        0.00000000        0.00000000        0.00000000        0.00000000
     126         -0.000000        0.000000        0.00000000        0.00000000        0.00000000        0.00000000
     127         -0.000000        0.000000        0.00000000        0.00000000        0.00000000        0.00000000
     128         -0.000000        0.000000        0.00000000        0.00000000        0.00000000        0.00000000
     129         -0.000000        0.000000        0.00000000        0.00000000        0.00000000        0.00000000
     130         -0.000000        0.000000        0.00000000        0.00000000        0.00000000        0.00000000
     131         -0.000000        0.000000        0.00000000        0.00000000        0.00000000        0.00000000
     132         -0.000000        0.000000        0.00000000        0.00000000        0.00000000        0.00000000
     133         -0.000000        0.000000        0.00000000        0.00000000        0.00000000        0.00000000
     134         -0.000000        0.000000        0.00000000        0.00000000        0.00000000        0.00000000
     135         -0.000000        0.000000        0.00000000        0.00000000        0.00000000        0.00000000
     136         -0.000000        0.000000        0.00000000        0.00000000        0.00000000        0.00000000
     137         -0.000000        0.000000        0.00000000        0.00000000        0.00000000        0.00000000
     138         -0.000000        0.000000        0.00000000        0.00000000        0.00000000        0.00000000
     139         -0.000000        0.000000        0.00000000        0.00000000        0.00000000        0.00000000
     140         -0.000000        0.000000        0.00000000        0.00000000        0.00000000        0.00000000
     141         -0.000000        0.000000        0.00000000        0.00000000        0.00000000        0.00000000
     142         -0.000000        0.000000        0.00000000        0.00000000        0.00000000        0.00000000
     143         -0.000000        0.000000        0.00000000        0.00000000        0.00000000        0.00000000
     144         -0.000000        0.000000        0.00000000        0.00000000        0.00000000        0.00000000
     145         -0.000000        0.000000        0.00000000        0.00000000        0.00000000        0.00000000
     146         -0.000000        0.000000        0.00000000        0.00000000        0.00000000        0.00000000
     147         -0.000000        0.000000        0.00000000        0.00000000        0.00000000        0.00000000
     148         -0.000000        0.000000        0.00000000        0.00000000        0.00000000        0.00000000
     149         -0.000000        0.000000        0.00000000        0.00000000        0.00000000        0.00000000
     150         -0.000000        0.000000        0.00000000        0.00000000        0.00000000        0.00000000
     151         -0.000000        0.000000        0.00000000        0.00000000        0.00000000        0.00000000
     152         -0.000000        0.000000        0.00000000        0.00000000        0.00000000        0.00000000
     153         -0.000000        0.000000        0.00000000        0.00000000        0.00000000        0.00000000
     154         -0.000000        0.000000        0.00000000        0.00000000        0.00000000        0.00000000
     155         -0.000000        0.000000        0.00000000        0.00000000        0.00000000        0.00000000
     156         -0.000000        0.000000        0.00000000        0.00000000        0.00000000        0.00000000
     157         -0.000000        0.000000        0.00000000        0.00000000        0.00000000        0.00000000
     158         -0.000000        0.000000        0.00000000        0.00000000        0.00000000        0.00000000
     159         -0.000000        0.000000        0.00000000        0.00000000        0.00000000        0.00000000
     160         -0.000000        0.000000        0.00000000        0.00000000        0.00000000        0.00000000
     161         -0.000000        0.000000        0.00000000        0.00000000        0.00000000        0.00000000
     162         -0.000000        0.000000        0.00000000        0.00000000        0.00000000        0.00000000
     163         -0.000000        0.000000        0.00000000        0.00000000        0.00000000        0.00000000
     164         -0.000000        0.000000        0.00000000        0.00000000        0.00000000        0.00000000
     165         -0.000000        0.000000        0.00000000        0.00000000        0.00000000        0.00000000
     166         -0.000000        0.000000        0.00000000        0.00000000        0.00000000        0.00000000
     167         -0.000000        0.000000        0.00000000        0.00000000        0.00000000        0.00000000
     168         -0.000000        0.000000        0.00000000        0.00000000        0.00000000        0.00000000
     169         -0.000000        0.000000        0.00000000        0.00000000        0.00000000        0.00000000
     170         -0.000000        0.000000        0.00000000        0.00000000        0.00000000        0.00000000
     171         -0.000000        0.000000        0.00000000        0.00000000        0.00000000        0.00000000
     172         -0.000000        0.000000        0.00000000        0.00000000        0.00000000        0.00000000
     173          0.095212        0.000000        0.00252651        0.00000372        0.00074084        0.00001009
     174          0.115172        0.000000        0.00037746        0.00010294        0.00098119        0.00027793
     175          0.127783        0.000000        0.01861346        0.00053732        0.00048656        0.00002305
     176          0.143800        0.000000        0.00099211        0.00031814        0.00038182        0.00027460
     177          0.152547        0.000000        0.00041708        0.00000002        0.00118009        0.00025362
     178          0.162007        0.000000        0.00030296        0.00000602        0.00059907        0.00178993
     179          0.164382        0.000000        0.00124814        0.00036867        0.00114842        0.00022900
     180          0.168569        0.000000        0.00002154        0.00022254        0.00008603        0.00116571
     181          0.171940        0.000000        0.00049353        0.00096370        0.00289631        0.00001838
     182          0.175107        0.000000        0.00009471        0.00003601        0.00130973        0.00100195
     183          0.182462        0.000000        0.00088833        0.00004551        0.00157799        0.00100413
     184          0.184274        0.000000        0.00215205        0.00070015        0.00090904        0.00117007
     185          0.191784        0.000000        0.00048307        0.00019846        0.00075534        0.00050849
     186          0.194581        0.000000        0.00036631        0.00000585        0.00000621        0.00064103
     187          0.201403        0.000000        0.00236974        0.00011445        0.00113847        0.00011350
     188          0.202642        0.000000        0.00230847        0.00062402        0.00090954        0.00020503
     189          0.207601        0.000000        0.00022528        0.00016466        0.00144017        0.00519931
     190          0.210842        0.000000        0.00168489        0.00146222        0.00020620        0.00687326
     191          0.217186        0.000000        0.00149482        0.00003795        0.00015735        0.00169736
     192          0.219350        0.000000        0.00025706        0.00137552        0.00195805        0.00293230
     193          0.227715        0.000000        0.00018370        0.00605604        0.00000515        0.03258250
     194          0.229960        0.000000        0.00082634        0.02691416        0.01876846        0.00057332
     195          0.234252        0.000000        0.02457348        0.00262435        0.01637102        0.00003741
     196          0.242256        0.000000        0.00005034        0.00563170        0.00838559        0.00000126
     197          0.243231        0.000000        0.00033029        0.01028575        0.00265063        0.00051450
     198          0.245081        0.000000        0.00246230        0.00760568        0.00089635        0.00008480
     199          0.247695        0.000000        0.00066343        0.00683442        0.00007902        0.00229705
     200          0.252813        0.000000        0.00338440        0.00126213        0.00005853        0.01192171
     201          0.263360        0.000000        0.00362311        0.00679343        0.00077070        0.00046176
     202          0.264459        0.000000        0.00228701        0.00001571        0.01034504        0.00579339
     203          0.266810        0.000000        0.00028791        0.00009401        0.00283771        0.00590810
     204          0.270697        0.000000        0.00005970        0.00308213        0.00001352        0.00260217
     205          0.273195        0.000000        0.00006680        0.00554803        0.00442869        0.00002792
     206          0.280406        0.000000        0.00430797        0.00004760        0.00032668        0.00015417
     207          0.286111        0.000000        0.00138304        0.00020454        0.00309704        0.00019525
     208          0.287288        0.000000        0.00446177        0.00001725        0.00067912        0.00045099
     209          0.295980        0.000000        0.00018038        0.00003675        0.00000000        0.00018529
     210          0.300576        0.000000        0.00020290        0.00032921        0.00019898        0.00000237
     211          0.308500        0.000000        0.00198427        0.00038729        0.00031601        0.00119424
     212          0.315485        0.000000        0.00022640        0.00000430        0.00046529        0.00194076
     213          0.319036        0.000000        0.00016344        0.00002576        0.00023917        0.00040385
     214          0.320481        0.000000        0.00006196        0.00193281        0.00105981        0.00078206
     215          0.321758        0.000000        0.00099813        0.00004914        0.00064328        0.00025634
     216          0.333832        0.000000        0.00069364        0.00046851        0.00005221        0.00003912
     217          0.337286        0.000000        0.00009502        0.00056710        0.00003739        0.00223749
     218          0.341001        0.000000        0.00008971        0.00024412        0.00279541        0.00076625
     219          0.344807        0.000000        0.00026112        0.00025721        0.00020945        0.00113043
     220          0.347906        0.000000        0.00058715        0.00003439        0.00004438        0.00038220
     221          0.351257        0.000000        0.00174365        0.00017433        0.00000140        0.00030035
     222          0.353440        0.000000        0.00006345        0.00000960        0.00039180        0.00028452
     223          0.356572        0.000000        0.00007544        0.00000003        0.00012226        0.00000001
     224          0.357228        0.000000        0.00036672        0.00017443        0.00000638        0.00000011
     225          0.359857        0.000000        0.00192700        0.00000017        0.00017435        0.00028210
     226          0.364596        0.000000        0.00130505        0.00006742        0.00000533        0.00016079
     227          0.370093        0.000000        0.00025103        0.00044279        0.00004161        0.00032609
     228          0.374776        0.000000        0.00043871        0.00017437        0.00149487        0.00002996
     229          0.383776        0.000000        0.00026431        0.00010458        0.00086536        0.00022728
     230          0.386586        0.000000        0.00189873        0.00100904        0.00065943        0.00073719
     231          0.395778        0.000000        0.00017835        0.00000038        0.00002138        0.00127583
     232          0.400036        0.000000        0.00052598        0.00034447        0.00054840        0.00027796
     233          0.402715        0.000000        0.00155120        0.00412352        0.00398733        0.00019745
     234          0.412049        0.000000        0.00184976        0.00022597        0.00006244        0.00020101
     235          0.414523        0.000000        0.00018688        0.00011504        0.00014439        0.00097454
     236          0.416900        0.000000        0.00029342        0.00164230        0.00002665        0.00067932
     237          0.423123        0.000000        0.00173687        0.00012804        0.00043611        0.00000317
     238          0.426295        0.000000        0.00005186        0.00000957        0.00018258        0.00031719
     239          0.427996        0.000000        0.00150611        0.00007923        0.00004078        0.00003519
     240          0.433170        0.000000        0.00018535        0.00002279        0.00007490        0.00000003
     241          0.436763        0.000000        0.00162103        0.00019267        0.00002754        0.00146202
     242          0.439943        0.000000        0.00025273        0.00001196        0.00060768        0.00355887
     243          0.441716        0.000000        0.00181158        0.00015171        0.00004375        0.00000312
     244          0.444840        0.000000        0.00006502        0.00000510        0.00000775        0.00047623
     245          0.449429        0.000000        0.00179133        0.00039905        0.00070591        0.00049108
     246          0.451321        0.000000        0.00049116        0.00000260        0.00017627        0.00097577
     247          0.454461        0.000000        0.00005852        0.00007941        0.00044532        0.00079620
     248          0.458561        0.000000        0.00254893        0.00038448        0.00002891        0.00286364
     249          0.462007        0.000000        0.00028528        0.00024053        0.00021680        0.00000908
     250          0.465016        0.000000        0.00029435        0.00025110        0.00020360        0.00001341
     251          0.466561        0.000000        0.00027676        0.00000359        0.00002014        0.00006498
     252          0.467614        0.000000        0.00227830        0.00024398        0.00024729        0.00003494
     253          0.471940        0.000000        0.00096280        0.00000080        0.00006721        0.00005858
     254          0.474048        0.000000        0.00001613        0.00008410        0.00004654        0.00016577
     255          0.479328        0.000000        0.00158572        0.00037726        0.00000780        0.00053829
     256          0.482045        0.000000        0.00292395        0.00029712        0.00000074        0.00048406
     257          0.484963        0.000000        0.00038761        0.00000872        0.00023740        0.00207765
     258          0.488899        0.000000        0.00139823        0.00002192        0.00013608        0.00000684
     259          0.492214        0.000000        0.00010529        0.00120503        0.00035682        0.00005834