# Projected DOS for atomic kind Li at iteration step i = 0, E(Fermi) =    -0.039664 a.u.
#     MO Eigenvalue [a.u.]      Occupation                 s                py                pz                px
       1         -1.942834        1.000000        0.99745151        0.00001647        0.00001362        0.00000356
       2         -0.807762        1.000000        0.08468205        0.00008078        0.00015611        0.00002624
       3         -0.799308        1.000000        0.00005949        0.00000889        0.00034776        0.00239379
       4         -0.786697        1.000000        0.00021408        0.00312369        0.00006716        0.00071200
       5         -0.783654        1.000000        0.00033744        0.00002261        0.00051289        0.00017622
       6         -0.764337        1.000000        0.00172447        0.00011658        0.00003756        0.00000404
       7         -0.762206        1.000000        0.00003140        0.00001739        0.00000014        0.00059727
       8         -0.758424        1.000000        0.00033337        0.00000221        0.00002052        0.00008092
       9         -0.748985        1.000000        0.00001307        0.00033485        0.00000100        0.00000102
      10         -0.744761        1.000000        0.00001805        0.00003058        0.00005371        0.00011673
      11         -0.718995        1.000000        0.00028011        0.00000285        0.00000000        0.00012047
      12         -0.712699        1.000000        0.00047921        0.00001204        0.00000713        0.00000314
      13         -0.702445        1.000000        0.00001846        0.00000235        0.00002284        0.00000002
      14         -0.689063        1.000000        0.00014452        0.00009146        0.00023377        0.00001453
      15         -0.677311        1.000000        0.00000254        0.00000445        0.00006483        0.00001063
      16         -0.665018        1.000000        0.00009916        0.00001380        0.00000368        0.00000066
      17         -0.660070        1.000000        0.00001764        0.00001255        0.00007281        0.00000716
      18         -0.626295        1.000000        0.00010966        0.00001820        0.00000147        0.00002622
      19         -0.620477        1.000000        0.00008902        0.00000000        0.00015573        0.00000036
      20         -0.617560        1.000000        0.00001002        0.00000782        0.00006808        0.00000143
      21         -0.615588        1.000000        0.00002209        0.00001801        0.00001467        0.00000020
      22         -0.613061        1.000000        0.00001307        0.00000113        0.00007244        0.00000323
      23         -0.604309        1.000000        0.00002586        0.00005653        0.00004801        0.00000042
      24         -0.599115        1.000000        0.00000617        0.00004547        0.00000110        0.00001337
      25         -0.596571        1.000000        0.00000550        0.00000356        0.00000336        0.00000291
      26         -0.595553        1.000000        0.00000680        0.00000363        0.00009267        0.00000635
      27         -0.549082        1.000000        0.00000342        0.00008200        0.00002630        0.00002755
      28         -0.546884        1.000000        0.00000409        0.00000657        0.00001340        0.00000044
      29         -0.545410        1.000000        0.00000935        0.00000572        0.00000097        0.00000314
      30         -0.542459        1.000000        0.00001229        0.00000003        0.00006546        0.00000067
      31         -0.541858        1.000000        0.00001325        0.00000156        0.00007681        0.00000110
      32         -0.539019        1.000000        0.00003200        0.00003062        0.00001725        0.00000333
      33         -0.535777        1.000000        0.00000005        0.00000013        0.00002973        0.00000263
      34         -0.533575        1.000000        0.00000059        0.00000222        0.00000575        0.00001847
      35         -0.500578        1.000000        0.00001437        0.00001732        0.00025358        0.00000375
      36         -0.494938        1.000000        0.00000318        0.00000024        0.00002971        0.00000015
      37         -0.493159        1.000000        0.00000220        0.00000162        0.00003274        0.00000021
      38         -0.467485        1.000000        0.00000321        0.00000054        0.00002899        0.00000886
      39         -0.462828        1.000000        0.00002820        0.00004387        0.00000963        0.00000251
      40         -0.460968        1.000000        0.00000204        0.00000078        0.00001676        0.00001701
      41         -0.458576        1.000000        0.00001312        0.00000539        0.00008865        0.00000119
      42         -0.457263        1.000000        0.00000143        0.00001222        0.00006768        0.00000124
      43         -0.456709        1.000000        0.00001539        0.00000152        0.00003536        0.00000537
      44         -0.456609        1.000000        0.00000107        0.00000122        0.00000054        0.00000169
      45         -0.452242        1.000000        0.00000444        0.00000068        0.00000852        0.00000113
      46         -0.440021        1.000000        0.00052827        0.00000400        0.00000082        0.00001064
      47         -0.403307        1.000000        0.00000356        0.00008368        0.00000807        0.00000373
      48         -0.401226        1.000000        0.00000944        0.00001099        0.00000359        0.00001174
      49         -0.397256        1.000000        0.00000896        0.00006129        0.00011534        0.00007830
      50         -0.396061        1.000000        0.00000489        0.00000018        0.00001508        0.00000908
      51         -0.376080        1.000000        0.00001783        0.00002331        0.00003292        0.00000132
      52         -0.375083        1.000000        0.00000033        0.00000370        0.00002306        0.00000223
      53         -0.374167        1.000000        0.00000614        0.00000213        0.00006098        0.00000038
      54         -0.371081        1.000000        0.00000171        0.00004428        0.00003841        0.00002320
      55         -0.369041        1.000000        0.00000246        0.00000045        0.00000141        0.00000097
      56         -0.361580        1.000000        0.00012240        0.00000057        0.00006276        0.00000265
      57         -0.358923        1.000000        0.00000924        0.00001834        0.00000001        0.00000027
      58         -0.358538        1.000000        0.00002706        0.00002654        0.00008044        0.00002147
      59         -0.348735        1.000000        0.00508586        0.00001754        0.00136040        0.00000318
      60         -0.338254        1.000000        0.00000055        0.00000487        0.00002539        0.00000465
      61         -0.336062        1.000000        0.00000447        0.00004236        0.00005252        0.00017100
      62         -0.333418        1.000000        0.00002246        0.00000028        0.00000148        0.00000068
      63         -0.325058        1.000000        0.00000413        0.00140893        0.00004660        0.00506617
      64         -0.320989        1.000000        0.00001715        0.00031936        0.00866299        0.00070359
      65         -0.320546        1.000000        0.00003619        0.00785787        0.00046927        0.00180776
      66         -0.314311        1.000000        0.00000287        0.00011094        0.00002839        0.00007140
      67         -0.313325        1.000000        0.00002908        0.00001209        0.00091375        0.00000912
      68         -0.311519        1.000000        0.00001432        0.00000598        0.00025536        0.00001522
      69         -0.310749        1.000000        0.00001389        0.00000407        0.00003946        0.00000750
      70         -0.296495        1.000000        0.00000142        0.00000654        0.00000186        0.00005188
      71         -0.295560        1.000000        0.00000071        0.00009183        0.00000258        0.00000476
      72         -0.293862        1.000000        0.00000154        0.00000780        0.00000096        0.00001929
      73         -0.292524        1.000000        0.00000600        0.00003704        0.00001974        0.00000099
      74         -0.289711        1.000000        0.00000204        0.00000423        0.00001042        0.00000020
      75         -0.281753        1.000000        0.00000366        0.00008115        0.00000056        0.00000708
      76         -0.280070        1.000000        0.00000324        0.00002585        0.00000215        0.00000030
      77         -0.279526        1.000000        0.00000052        0.00003051        0.00000238        0.00000003
      78         -0.278366        1.000000        0.00000360        0.00002766        0.00002103        0.00002055
      79         -0.276202        1.000000        0.00000321        0.00000557        0.00002324        0.00000876
      80         -0.275632        1.000000        0.00000285        0.00000976        0.00000370        0.00000143
      81         -0.274490        1.000000        0.00000627        0.00000868        0.00017384        0.00003813
      82         -0.273838        1.000000        0.00000836        0.00000105        0.00002107        0.00000321
      83         -0.272066        1.000000        0.00000654        0.00000039        0.00000631        0.00000300
      84         -0.271601        1.000000        0.00000814        0.00000739        0.00000081        0.00000897
      85         -0.270079        1.000000        0.00000081        0.00000367        0.00012312        0.00000972
      86         -0.269190        1.000000        0.00000102        0.00000001        0.00000057        0.00000809
      87         -0.252098        1.000000        0.00000317        0.00000040        0.00001307        0.00000005
      88         -0.251012        1.000000        0.00000190        0.00000095        0.00001035        0.00000158
      89         -0.247534        1.000000        0.00000067        0.00000164        0.00000162        0.00000071
      90         -0.247093        1.000000        0.00000085        0.00000000        0.00000026        0.00000726
      91         -0.228159        1.000000        0.00000248        0.00000899        0.00008780        0.00000579
      92         -0.225096        1.000000        0.00000360        0.00003662        0.00015193        0.00000348
      93         -0.222607        1.000000        0.00000027        0.00000117        0.00000898        0.00000118
      94         -0.216257        1.000000        0.00000073        0.00000476        0.00002112        0.00000032
      95         -0.215036        1.000000        0.00000118        0.00000049        0.00006935        0.00000755
      96         -0.213274        1.000000        0.00000111        0.00000121        0.00000730        0.00000011
      97         -0.211645        1.000000        0.00000024        0.00000058        0.00002455        0.00000075
      98         -0.211254        1.000000        0.00000583        0.00000059        0.00010869        0.00000619
      99         -0.206190        1.000000        0.00000046        0.00000102        0.00000284        0.00000025
     100         -0.204532        1.000000        0.00000153        0.00000217        0.00001633        0.00001469
     101         -0.203433        1.000000        0.00000009        0.00000012        0.00010338        0.00000225
     102         -0.202201        1.000000        0.00000024        0.00000598        0.00000560        0.00000097
     103         -0.201266        1.000000        0.00000007        0.00000643        0.00000040        0.00000017
     104         -0.201118        1.000000        0.00000012        0.00001760        0.00007092        0.00000043
     105         -0.200377        1.000000        0.00000015        0.00000320        0.00007291        0.00000122
     106         -0.198481        1.000000        0.00000003        0.00000624        0.00000004        0.00000005
     107         -0.197983        1.000000        0.00000409        0.00000217        0.00004083        0.00000550
     108         -0.147932        1.000000        0.00000086        0.00007682        0.00004643        0.00000177
     109         -0.146220        1.000000        0.00000322        0.00002983        0.00027010        0.00000313
     110         -0.145129        1.000000        0.00000246        0.00000076        0.00012299        0.00000310
     111         -0.144170        1.000000        0.00000619        0.00000627        0.00002727        0.00000593
     112         -0.143120        1.000000        0.00000184        0.00000199        0.00051350        0.00000074
     113         -0.139438        1.000000        0.00000042        0.00000507        0.00026568        0.00001139
     114         -0.138813        1.000000        0.00000851        0.00000098        0.00001144        0.00000056
     115         -0.136958        1.000000        0.00001704        0.00000230        0.00000011        0.00000251
     116         -0.135631        1.000000        0.00000111        0.00000974        0.00000287        0.00001048
     117         -0.101412        1.000000        0.00000140        0.00000991        0.00000006        0.00000259
     118         -0.097963        1.000000        0.00000069        0.00001359        0.00011841        0.00000246
     119         -0.096333        1.000000        0.00000556        0.00000316        0.00077497        0.00001241
     120         -0.092651        1.000000        0.00000038        0.00007560        0.00027335        0.00000533
     121         -0.092034        1.000000        0.00002049        0.00003306        0.00033156        0.00001574
     122         -0.039664        1.000000        0.00001057        0.00008162        0.00009265        0.00002655
     123         -0.034953        0.000000        0.00000636        0.00003230        0.00006752        0.00003603
     124         -0.034495        0.000000        0.00003783        0.00008807        0.00069941        0.00005147
     125         -0.000000        0.000000        0.00000000        0.00000000        0.00000000        0.00000000
     126         -0.000000        0.000000        0.00000000        0.00000000        0.00000000        0.00000000
     127         -0.000000        0.000000        0.00000000        0.00000000        0.00000000        0.00000000
     128         -0.000000        0.000000        0.00000000        0.00000000        0.00000000        0.00000000
     129         -0.000000        0.000000        0.00000000        0.00000000        0.00000000        0.00000000
     130         -0.000000        0.000000        0.00000000        0.00000000        0.00000000        0.00000000
     131         -0.000000        0.000000        0.00000000        0.00000000        0.00000000        0.00000000
     132         -0.000000        0.000000        0.00000000        0.00000000        0.00000000        0.00000000
     133         -0.000000        0.000000        0.00000000        0.00000000        0.00000000        0.00000000
     134         -0.000000        0.000000        0.00000000        0.00000000        0.00000000        0.00000000
     135         -0.000000        0.000000        0.00000000        0.00000000        0.00000000        0.00000000
     136         -0.000000        0.000000        0.00000000        0.00000000        0.00000000        0.00000000
     137         -0.000000        0.000000        0.00000000        0.00000000        0.00000000        0.00000000
     138         -0.000000        0.000000        0.00000000        0.00000000        0.00000000        0.00000000
     139         -0.000000        0.000000        0.00000000        0.00000000        0.00000000        0.00000000
     140         -0.000000        0.000000        0.00000000        0.00000000        0.00000000        0.00000000
     141         -0.000000        0.000000        0.00000000        0.00000000        0.00000000        0.00000000
     142         -0.000000        0.000000        0.00000000        0.00000000        0.00000000        0.00000000
     143         -0.000000        0.000000        0.00000000        0.00000000        0.00000000        0.00000000
     144         -0.000000        0.000000        0.00000000        0.00000000        0.00000000        0.00000000
     145         -0.000000        0.000000        0.00000000        0.00000000        0.00000000        0.00000000
     146         -0.000000        0.000000        0.00000000        0.00000000        0.00000000        0.00000000
     147         -0.000000        0.000000        0.00000000        0.00000000        0.00000000        0.00000000
     148         -0.000000        0.000000        0.00000000        0.00000000        0.00000000        0.00000000
     149         -0.000000        0.000000        0.00000000        0.00000000        0.00000000        0.00000000
     150         -0.000000        0.000000        0.00000000        0.00000000        0.00000000        0.00000000
     151         -0.000000        0.000000        0.00000000        0.00000000        0.00000000        0.00000000
     152         -0.000000        0.000000        0.00000000        0.00000000        0.00000000        0.00000000
     153         -0.000000        0.000000        0.00000000        0.00000000        0.00000000        0.00000000
     154         -0.000000        0.000000        0.00000000        0.00000000        0.00000000        0.00000000
     155         -0.000000        0.000000        0.00000000        0.00000000        0.00000000        0.00000000
     156         -0.000000        0.000000        0.00000000        0.00000000        0.00000000        0.00000000
     157         -0.000000        0.000000        0.00000000        0.00000000        0.00000000        0.00000000
     158         -0.000000        0.000000        0.00000000        0.00000000        0.00000000        0.00000000
     159         -0.000000        0.000000        0.00000000        0.00000000        0.00000000        0.00000000
     160         -0.000000        0.000000        0.00000000        0.00000000        0.00000000        0.00000000
     161         -0.000000        0.000000        0.00000000        0.00000000        0.00000000        0.00000000
     162         -0.000000        0.000000        0.00000000        0.00000000        0.00000000        0.00000000
     163         -0.000000        0.000000        0.00000000        0.00000000        0.00000000        0.00000000
     164         -0.000000        0.000000        0.00000000        0.00000000        0.00000000        0.00000000
     165         -0.000000        0.000000        0.00000000        0.00000000        0.00000000        0.00000000
     166         -0.000000        0.000000        0.00000000        0.00000000        0.00000000        0.00000000
     167         -0.000000        0.000000        0.00000000        0.00000000        0.00000000        0.00000000
     168         -0.000000        0.000000        0.00000000        0.00000000        0.00000000        0.00000000
     169         -0.000000        0.000000        0.00000000        0.00000000        0.00000000        0.00000000
     170         -0.000000        0.000000        0.00000000        0.00000000        0.00000000        0.00000000
     171         -0.000000        0.000000        0.00000000        0.00000000        0.00000000        0.00000000
     172         -0.000000        0.000000        0.00000000        0.00000000        0.00000000        0.00000000
     173          0.166627        0.000000        0.00254448        0.00000022        0.00051120        0.00000568
     174          0.184554        0.000000        0.00006578        0.00003308        0.00102893        0.00020229
     175          0.197911        0.000000        0.01868168        0.00057883        0.00078932        0.00004315
     176          0.214019        0.000000        0.00106755        0.00024495        0.00063912        0.00037593
     177          0.222739        0.000000        0.00054663        0.00000056        0.00117422        0.00045261
     178          0.232698        0.000000        0.00043834        0.00000358        0.00039707        0.00208195
     179          0.234914        0.000000        0.00113751        0.00073871        0.00013001        0.00037447
     180          0.240583        0.000000        0.00000899        0.00066929        0.00038383        0.00069106
     181          0.243527        0.000000        0.00024738        0.00071492        0.00577717        0.00005149
     182          0.246813        0.000000        0.00004962        0.00005078        0.00000524        0.00125046
     183          0.253245        0.000000        0.00071841        0.00067229        0.00062656        0.00019373
     184          0.254142        0.000000        0.00223774        0.00003786        0.00147243        0.00141444
     185          0.263488        0.000000        0.00071061        0.00009076        0.00092394        0.00035844
     186          0.266142        0.000000        0.00042040        0.00043065        0.00035455        0.00068387
     187          0.272757        0.000000        0.00044484        0.00037094        0.00129668        0.00018123
     188          0.273369        0.000000        0.00445793        0.00086117        0.00012192        0.00006720
     189          0.277738        0.000000        0.00032713        0.00023029        0.00146010        0.00897376
     190          0.281125        0.000000        0.00091169        0.00120542        0.00026225        0.00664663
     191          0.286820        0.000000        0.00143842        0.00008121        0.00100483        0.00442905
     192          0.288360        0.000000        0.00040309        0.00191487        0.00146566        0.00317614
     193          0.296199        0.000000        0.00062264        0.02034616        0.00238538        0.02144287
     194          0.299047        0.000000        0.00469909        0.01277769        0.02624822        0.00728613
     195          0.304278        0.000000        0.01831467        0.01043247        0.00971818        0.00108031
     196          0.310818        0.000000        0.00066778        0.00049520        0.00592086        0.00008673
     197          0.313142        0.000000        0.00366742        0.00002793        0.00506977        0.00043838
     198          0.314607        0.000000        0.00097991        0.01464429        0.00010743        0.00002716
     199          0.318510        0.000000        0.00106357        0.00811832        0.00001384        0.00035529
     200          0.322481        0.000000        0.00343533        0.00049781        0.00015264        0.01262534
     201          0.332238        0.000000        0.00152531        0.00372479        0.00229786        0.00030228
     202          0.333975        0.000000        0.00178599        0.00160756        0.00781405        0.00016276
     203          0.335273        0.000000        0.00190785        0.00008045        0.00039862        0.01109695
     204          0.339199        0.000000        0.00002430        0.00578605        0.00057004        0.00110861
     205          0.341550        0.000000        0.00016292        0.00165668        0.00400229        0.00004618
     206          0.350761        0.000000        0.00267875        0.00000145        0.00003808        0.00055585
     207          0.355424        0.000000        0.00137543        0.00046355        0.00307379        0.00010165
     208          0.357195        0.000000        0.00494209        0.00029851        0.00049907        0.00004928
     209          0.365463        0.000000        0.00028726        0.00007519        0.00014909        0.00041805
     210          0.371825        0.000000        0.00057340        0.00040238        0.00016349        0.00000180
     211          0.377974        0.000000        0.00214918        0.00029836        0.00015425        0.00170789
     212          0.385280        0.000000        0.00040998        0.00001799        0.00032245        0.00086257
     213          0.389289        0.000000        0.00044718        0.00040097        0.00181152        0.00143357
     214          0.389587        0.000000        0.00001304        0.00018177        0.00007190        0.00000975
     215          0.392258        0.000000        0.00065991        0.00062380        0.00001625        0.00000038
     216          0.400693        0.000000        0.00041452        0.00015740        0.00026947        0.00004471
     217          0.406404        0.000000        0.00003167        0.00053426        0.00014323        0.00203872
     218          0.410609        0.000000        0.00029324        0.00064903        0.00248815        0.00027275
     219          0.414911        0.000000        0.00024129        0.00026924        0.00010475        0.00145275
     220          0.416485        0.000000        0.00018260        0.00003239        0.00000417        0.00003039
     221          0.420027        0.000000        0.00221039        0.00002151        0.00000047        0.00036766
     222          0.422920        0.000000        0.00010951        0.00000120        0.00046067        0.00043798
     223          0.425664        0.000000        0.00004246        0.00000949        0.00007376        0.00000785
     224          0.429048        0.000000        0.00012362        0.00007100        0.00018666        0.00005095
     225          0.429526        0.000000        0.00062398        0.00003414        0.00000618        0.00000015
     226          0.432339        0.000000        0.00212786        0.00011420        0.00000187        0.00028455
     227          0.440666        0.000000        0.00053114        0.00011805        0.00034606        0.00015673
     228          0.444669        0.000000        0.00018175        0.00012838        0.00051622        0.00000396
     229          0.453343        0.000000        0.00017497        0.00047258        0.00184940        0.00065941
     230          0.456778        0.000000        0.00196664        0.00074904        0.00063202        0.00051177
     231          0.465036        0.000000        0.00026586        0.00000434        0.00000200        0.00156775
     232          0.467991        0.000000        0.00022158        0.00056191        0.00096283        0.00062245
     233          0.471920        0.000000        0.00181049        0.00341229        0.00267847        0.00016574
     234          0.482370        0.000000        0.00066148        0.00000066        0.00000001        0.00000648
     235          0.482872        0.000000        0.00015296        0.00028654        0.00017776        0.00096200
     236          0.486046        0.000000        0.00077053        0.00140547        0.00007881        0.00065412
     237          0.491914        0.000000        0.00153739        0.00031504        0.00030090        0.00002927
     238          0.494985        0.000000        0.00027563        0.00015726        0.00031453        0.00016978
     239          0.496532        0.000000        0.00071475        0.00005281        0.00009966        0.00002269
     240          0.502387        0.000000        0.00007106        0.00005562        0.00002099        0.00004231
     241          0.506929        0.000000        0.00088774        0.00019179        0.00000238        0.00033723
     242          0.509431        0.000000        0.00329057        0.00002204        0.00019698        0.00002742
     243          0.510422        0.000000        0.00044394        0.00005856        0.00062463        0.00507387
     244          0.513695        0.000000        0.00028276        0.00000920        0.00000262        0.00026645
     245          0.519900        0.000000        0.00246280        0.00041213        0.00014577        0.00047410
     246          0.521099        0.000000        0.00024150        0.00014693        0.00034406        0.00000996
     247          0.524570        0.000000        0.00020178        0.00000752        0.00061752        0.00058735
     248          0.529812        0.000000        0.00120650        0.00041760        0.00004187        0.00244401
     249          0.534159        0.000000        0.00016194        0.00035241        0.00027993        0.00000234
     250          0.534437        0.000000        0.00024084        0.00004605        0.00007715        0.00003053
     251          0.537771        0.000000        0.00290362        0.00000099        0.00002439        0.00004643
     252          0.538607        0.000000        0.00050969        0.00019030        0.00005225        0.00002387
     253          0.542838        0.000000        0.00020329        0.00012408        0.00008898        0.00010317
     254          0.544769        0.000000        0.00006167        0.00005834        0.00000223        0.00013434
     255          0.550214        0.000000        0.00092537        0.00001753        0.00000605        0.00111713
     256          0.553192        0.000000        0.00155340        0.00020832        0.00011140        0.00070405
     257          0.554672        0.000000        0.00199465        0.00003015        0.00040635        0.00135019
     258          0.558999        0.000000        0.00211759        0.00012567        0.00000780        0.00000717
     259          0.561631        0.000000        0.00085766        0.00081884        0.00007426        0.00018525