# Projected DOS for atomic kind Li at iteration step i = 0, E(Fermi) =    -0.159233 a.u.
#     MO Eigenvalue [a.u.]      Occupation                 s                py                pz                px
       1         -1.994645        1.000000        0.99481378        0.00000042        0.00000127        0.00000026
       2         -0.881109        1.000000        0.04153140        0.00051735        0.00008313        0.00011254
       3         -0.861663        1.000000        0.01117010        0.00001393        0.00122202        0.00007078
       4         -0.846191        1.000000        0.02632860        0.00169256        0.00018476        0.00055460
       5         -0.832522        1.000000        0.00071152        0.00013340        0.00104387        0.00088661
       6         -0.820963        1.000000        0.00021698        0.00003229        0.00018798        0.00025408
       7         -0.806949        1.000000        0.00149437        0.00006637        0.00000011        0.00002973
       8         -0.802405        1.000000        0.00002439        0.00000450        0.00001504        0.00003547
       9         -0.798256        1.000000        0.00035355        0.00003480        0.00000000        0.00000209
      10         -0.797528        1.000000        0.00001617        0.00000382        0.00003783        0.00000853
      11         -0.769732        1.000000        0.00004381        0.00000244        0.00001735        0.00009031
      12         -0.768608        1.000000        0.00008395        0.00001668        0.00000454        0.00005325
      13         -0.761714        1.000000        0.00002548        0.00004224        0.00001076        0.00000009
      14         -0.739003        1.000000        0.00054755        0.00004884        0.00000215        0.00006194
      15         -0.734476        1.000000        0.00000412        0.00001255        0.00000155        0.00002846
      16         -0.730675        1.000000        0.00000526        0.00000234        0.00001377        0.00002586
      17         -0.728638        1.000000        0.00001889        0.00000552        0.00002204        0.00002146
      18         -0.690306        1.000000        0.00001139        0.00001047        0.00002314        0.00001128
      19         -0.688228        1.000000        0.00001560        0.00000027        0.00000727        0.00000496
      20         -0.686844        1.000000        0.00000551        0.00000872        0.00000979        0.00000206
      21         -0.684727        1.000000        0.00000065        0.00000105        0.00000106        0.00000919
      22         -0.683882        1.000000        0.00000767        0.00002999        0.00005852        0.00009745
      23         -0.669376        1.000000        0.00000458        0.00001880        0.00001250        0.00004226
      24         -0.666275        1.000000        0.00000648        0.00002746        0.00004899        0.00008037
      25         -0.665488        1.000000        0.00000216        0.00000024        0.00000545        0.00000671
      26         -0.664293        1.000000        0.00000792        0.00000011        0.00000126        0.00001065
      27         -0.620289        1.000000        0.00001666        0.00000002        0.00001760        0.00000761
      28         -0.617543        1.000000        0.00000096        0.00000468        0.00000622        0.00000372
      29         -0.614026        1.000000        0.00000075        0.00000032        0.00001267        0.00004768
      30         -0.612968        1.000000        0.00005381        0.00001899        0.00000632        0.00000103
      31         -0.608545        1.000000        0.00000448        0.00002041        0.00004035        0.00011183
      32         -0.607881        1.000000        0.00000836        0.00000389        0.00000037        0.00002273
      33         -0.606915        1.000000        0.00001652        0.00003224        0.00003754        0.00000318
      34         -0.604981        1.000000        0.00003279        0.00000845        0.00006474        0.00000720
      35         -0.571274        1.000000        0.00005653        0.00000026        0.00000896        0.00000124
      36         -0.566628        1.000000        0.00000116        0.00000587        0.00000998        0.00000002
      37         -0.564670        1.000000        0.00000975        0.00000746        0.00000173        0.00000516
      38         -0.542759        1.000000        0.00008320        0.00001056        0.00000332        0.00004699
      39         -0.531305        1.000000        0.00001407        0.00000000        0.00001310        0.00000232
      40         -0.530070        1.000000        0.00000565        0.00000023        0.00000205        0.00000155
      41         -0.528405        1.000000        0.00000683        0.00002075        0.00002493        0.00000030
      42         -0.527556        1.000000        0.00000529        0.00000182        0.00000308        0.00001040
      43         -0.525332        1.000000        0.00000719        0.00000073        0.00000201        0.00000654
      44         -0.525020        1.000000        0.00000127        0.00000346        0.00000209        0.00000673
      45         -0.521744        1.000000        0.00001441        0.00000130        0.00000193        0.00003405
      46         -0.511214        1.000000        0.00063610        0.00000018        0.00001147        0.00000050
      47         -0.484952        1.000000        0.00006793        0.00002650        0.00004641        0.00008893
      48         -0.469186        1.000000        0.00000311        0.00000501        0.00000008        0.00000107
      49         -0.467587        1.000000        0.00000110        0.00002566        0.00000120        0.00007991
      50         -0.465806        1.000000        0.00000273        0.00000041        0.00001292        0.00000023
      51         -0.456412        1.000000        0.00001986        0.00003525        0.00001025        0.00032647
      52         -0.447325        1.000000        0.00000672        0.00000211        0.00000037        0.00000474
      53         -0.445043        1.000000        0.00000185        0.00003215        0.00000540        0.00002639
      54         -0.441751        1.000000        0.00001706        0.00000787        0.00003127        0.00007987
      55         -0.438313        1.000000        0.00000209        0.00000005        0.00000250        0.00000100
      56         -0.431747        1.000000        0.00001637        0.00001129        0.00000365        0.00003035
      57         -0.431652        1.000000        0.00003275        0.00001358        0.00000628        0.00000324
      58         -0.428031        1.000000        0.00000288        0.00000506        0.00000256        0.00000265
      59         -0.412788        1.000000        0.00230993        0.00051062        0.00007163        0.00128380
      60         -0.407759        1.000000        0.00001484        0.00001980        0.00004899        0.00003628
      61         -0.405530        1.000000        0.00019362        0.00000728        0.00002130        0.00004354
      62         -0.402867        1.000000        0.00019666        0.00000042        0.00007404        0.00000151
      63         -0.392613        1.000000        0.00158200        0.00287616        0.00001413        0.00141716
      64         -0.390125        1.000000        0.00003054        0.00003469        0.00515162        0.00055015
      65         -0.386296        1.000000        0.00000638        0.00089557        0.00001459        0.00034457
      66         -0.384066        1.000000        0.00000200        0.00022154        0.00011889        0.00057229
      67         -0.383234        1.000000        0.00000294        0.00034773        0.00000549        0.00000073
      68         -0.382594        1.000000        0.00001680        0.00000510        0.00161124        0.00000899
      69         -0.378267        1.000000        0.00000112        0.00308016        0.00031722        0.00325118
      70         -0.367993        1.000000        0.00000758        0.00000361        0.00000321        0.00001581
      71         -0.365671        1.000000        0.00008017        0.00003820        0.00024909        0.00015044
      72         -0.363532        1.000000        0.00000695        0.00005667        0.00002714        0.00002300
      73         -0.361936        1.000000        0.00000948        0.00005072        0.00003012        0.00005856
      74         -0.360889        1.000000        0.00000184        0.00004266        0.00000002        0.00000278
      75         -0.352097        1.000000        0.00000288        0.00000437        0.00000148        0.00001511
      76         -0.348503        1.000000        0.00000301        0.00001214        0.00000981        0.00000111
      77         -0.347798        1.000000        0.00002861        0.00007298        0.00000249        0.00003941
      78         -0.347235        1.000000        0.00000788        0.00000811        0.00007914        0.00001180
      79         -0.345205        1.000000        0.00000556        0.00000221        0.00000962        0.00000375
      80         -0.343190        1.000000        0.00009607        0.00007229        0.00004039        0.00004154
      81         -0.342029        1.000000        0.00001422        0.00000486        0.00000668        0.00000308
      82         -0.341140        1.000000        0.00001374        0.00008334        0.00000098        0.00004004
      83         -0.339719        1.000000        0.00000092        0.00004481        0.00001013        0.00005433
      84         -0.339509        1.000000        0.00000834        0.00000958        0.00000254        0.00001598
      85         -0.336691        1.000000        0.00001087        0.00000895        0.00003100        0.00005704
      86         -0.333562        1.000000        0.00002914        0.00000041        0.00017966        0.00000700
      87         -0.322864        1.000000        0.00000172        0.00000391        0.00000074        0.00000774
      88         -0.322666        1.000000        0.00000088        0.00003310        0.00001976        0.00009677
      89         -0.319131        1.000000        0.00000319        0.00000769        0.00003030        0.00000002
      90         -0.316475        1.000000        0.00000130        0.00001258        0.00000015        0.00002998
      91         -0.296442        1.000000        0.00000585        0.00002502        0.00000621        0.00009202
      92         -0.291134        1.000000        0.00000156        0.00000065        0.00001183        0.00000684
      93         -0.289827        1.000000        0.00000206        0.00003100        0.00000908        0.00000729
      94         -0.288429        1.000000        0.00000287        0.00004919        0.00000723        0.00004720
      95         -0.287546        1.000000        0.00000120        0.00002928        0.00000142        0.00000155
      96         -0.285031        1.000000        0.00000046        0.00000174        0.00000022        0.00002148
      97         -0.283606        1.000000        0.00000145        0.00000120        0.00000047        0.00001054
      98         -0.282595        1.000000        0.00000649        0.00001142        0.00000698        0.00001956
      99         -0.278185        1.000000        0.00000087        0.00000032        0.00000970        0.00000123
     100         -0.274395        1.000000        0.00000165        0.00001418        0.00000530        0.00002839
     101         -0.273053        1.000000        0.00000272        0.00000334        0.00000002        0.00000364
     102         -0.271357        1.000000        0.00000087        0.00000718        0.00000189        0.00000835
     103         -0.269897        1.000000        0.00001633        0.00011487        0.00002226        0.00026147
     104         -0.269608        1.000000        0.00000299        0.00003300        0.00000491        0.00005417
     105         -0.268735        1.000000        0.00000068        0.00002510        0.00000888        0.00003275
     106         -0.266928        1.000000        0.00000972        0.00000001        0.00000015        0.00000917
     107         -0.266621        1.000000        0.00000203        0.00000896        0.00000111        0.00000385
     108         -0.218143        1.000000        0.00000055        0.00000152        0.00000682        0.00000112
     109         -0.215757        1.000000        0.00000329        0.00006047        0.00000174        0.00008534
     110         -0.214972        1.000000        0.00000321        0.00001645        0.00000226        0.00001529
     111         -0.213541        1.000000        0.00000388        0.00001996        0.00000658        0.00000863
     112         -0.212422        1.000000        0.00003655        0.00002941        0.00003755        0.00002219
     113         -0.209306        1.000000        0.00000212        0.00004172        0.00001194        0.00004713
     114         -0.206626        1.000000        0.00000085        0.00001003        0.00002286        0.00000269
     115         -0.202740        1.000000        0.00001846        0.00004204        0.00002836        0.00000293
     116         -0.201355        1.000000        0.00000106        0.00001995        0.00000323        0.00003188
     117         -0.170884        1.000000        0.00000092        0.00000047        0.00001472        0.00002635
     118         -0.168733        1.000000        0.00000353        0.00001792        0.00000162        0.00000228
     119         -0.166453        1.000000        0.00000436        0.00000070        0.00001400        0.00007609
     120         -0.159577        1.000000        0.00000650        0.00002335        0.00000753        0.00003824
     121         -0.159233        1.000000        0.00001086        0.00000000        0.00000886        0.00000462
     122         -0.106457        0.000000        0.00001556        0.00032666        0.00016994        0.00010665
     123         -0.105571        0.000000        0.00002111        0.00075435        0.00009803        0.00024920
     124         -0.104694        0.000000        0.00000743        0.00002631        0.00009067        0.00007341
     125         -0.000000        0.000000        0.00000000        0.00000000        0.00000000        0.00000000
     126         -0.000000        0.000000        0.00000000        0.00000000        0.00000000        0.00000000
     127         -0.000000        0.000000        0.00000000        0.00000000        0.00000000        0.00000000
     128         -0.000000        0.000000        0.00000000        0.00000000        0.00000000        0.00000000
     129         -0.000000        0.000000        0.00000000        0.00000000        0.00000000        0.00000000
     130         -0.000000        0.000000        0.00000000        0.00000000        0.00000000        0.00000000
     131         -0.000000        0.000000        0.00000000        0.00000000        0.00000000        0.00000000
     132         -0.000000        0.000000        0.00000000        0.00000000        0.00000000        0.00000000
     133         -0.000000        0.000000        0.00000000        0.00000000        0.00000000        0.00000000
     134         -0.000000        0.000000        0.00000000        0.00000000        0.00000000        0.00000000
     135         -0.000000        0.000000        0.00000000        0.00000000        0.00000000        0.00000000
     136         -0.000000        0.000000        0.00000000        0.00000000        0.00000000        0.00000000
     137         -0.000000        0.000000        0.00000000        0.00000000        0.00000000        0.00000000
     138         -0.000000        0.000000        0.00000000        0.00000000        0.00000000        0.00000000
     139         -0.000000        0.000000        0.00000000        0.00000000        0.00000000        0.00000000
     140         -0.000000        0.000000        0.00000000        0.00000000        0.00000000        0.00000000
     141         -0.000000        0.000000        0.00000000        0.00000000        0.00000000        0.00000000
     142         -0.000000        0.000000        0.00000000        0.00000000        0.00000000        0.00000000
     143         -0.000000        0.000000        0.00000000        0.00000000        0.00000000        0.00000000
     144         -0.000000        0.000000        0.00000000        0.00000000        0.00000000        0.00000000
     145         -0.000000        0.000000        0.00000000        0.00000000        0.00000000        0.00000000
     146         -0.000000        0.000000        0.00000000        0.00000000        0.00000000        0.00000000
     147         -0.000000        0.000000        0.00000000        0.00000000        0.00000000        0.00000000
     148         -0.000000        0.000000        0.00000000        0.00000000        0.00000000        0.00000000
     149         -0.000000        0.000000        0.00000000        0.00000000        0.00000000        0.00000000
     150         -0.000000        0.000000        0.00000000        0.00000000        0.00000000        0.00000000
     151         -0.000000        0.000000        0.00000000        0.00000000        0.00000000        0.00000000
     152         -0.000000        0.000000        0.00000000        0.00000000        0.00000000        0.00000000
     153         -0.000000        0.000000        0.00000000        0.00000000        0.00000000        0.00000000
     154         -0.000000        0.000000        0.00000000        0.00000000        0.00000000        0.00000000
     155         -0.000000        0.000000        0.00000000        0.00000000        0.00000000        0.00000000
     156         -0.000000        0.000000        0.00000000        0.00000000        0.00000000        0.00000000
     157         -0.000000        0.000000        0.00000000        0.00000000        0.00000000        0.00000000
     158         -0.000000        0.000000        0.00000000        0.00000000        0.00000000        0.00000000
     159         -0.000000        0.000000        0.00000000        0.00000000        0.00000000        0.00000000
     160         -0.000000        0.000000        0.00000000        0.00000000        0.00000000        0.00000000
     161         -0.000000        0.000000        0.00000000        0.00000000        0.00000000        0.00000000
     162         -0.000000        0.000000        0.00000000        0.00000000        0.00000000        0.00000000
     163         -0.000000        0.000000        0.00000000        0.00000000        0.00000000        0.00000000
     164         -0.000000        0.000000        0.00000000        0.00000000        0.00000000        0.00000000
     165         -0.000000        0.000000        0.00000000        0.00000000        0.00000000        0.00000000
     166         -0.000000        0.000000        0.00000000        0.00000000        0.00000000        0.00000000
     167         -0.000000        0.000000        0.00000000        0.00000000        0.00000000        0.00000000
     168         -0.000000        0.000000        0.00000000        0.00000000        0.00000000        0.00000000
     169         -0.000000        0.000000        0.00000000        0.00000000        0.00000000        0.00000000
     170         -0.000000        0.000000        0.00000000        0.00000000        0.00000000        0.00000000
     171         -0.000000        0.000000        0.00000000        0.00000000        0.00000000        0.00000000
     172          0.097223        0.000000        0.00035898        0.00001779        0.00007216        0.00009122
     173          0.115488        0.000000        0.00403099        0.00365505        0.00012066        0.00136022
     174          0.125426        0.000000        0.00012437        0.00000337        0.00007674        0.00009259
     175          0.144236        0.000000        0.00002322        0.00133432        0.00007455        0.00080348
     176          0.151202        0.000000        0.00334491        0.00124658        0.00010592        0.00150399
     177          0.160969        0.000000        0.00009639        0.00162067        0.00035360        0.00000033
     178          0.163731        0.000000        0.00134767        0.00004929        0.00028060        0.00000032
     179          0.171830        0.000000        0.00238086        0.00341879        0.00004723        0.00045126
     180          0.173726        0.000000        0.00098976        0.00009881        0.00037098        0.00001029
     181          0.179996        0.000000        0.00093162        0.00065477        0.00016828        0.00004778
     182          0.181571        0.000000        0.00254032        0.00116282        0.00096998        0.00010710
     183          0.185853        0.000000        0.00003186        0.00119445        0.00072118        0.00004203
     184          0.191225        0.000000        0.00001279        0.00048161        0.00040582        0.00013404
     185          0.195610        0.000000        0.00049571        0.00027783        0.00000101        0.00000447
     186          0.199919        0.000000        0.00228270        0.00055942        0.00012040        0.00002104
     187          0.202932        0.000000        0.00056216        0.00132348        0.00095267        0.00074052
     188          0.205685        0.000000        0.00036411        0.00020497        0.01291633        0.00006103
     189          0.208747        0.000000        0.00232172        0.00070248        0.00138657        0.00012652
     190          0.214200        0.000000        0.01496950        0.00407890        0.00524016        0.02271928
     191          0.218660        0.000000        0.00030147        0.00463691        0.00093320        0.00543522
     192          0.220658        0.000000        0.00963907        0.00253866        0.00393569        0.00056020
     193          0.226517        0.000000        0.02593456        0.00301165        0.00976148        0.00000834
     194          0.231484        0.000000        0.00069055        0.00008288        0.00123030        0.01627236
     195          0.237600        0.000000        0.00248036        0.00079344        0.02769419        0.00697217
     196          0.239902        0.000000        0.00223930        0.00835355        0.00782306        0.01646850
     197          0.243598        0.000000        0.00304702        0.00087181        0.00053500        0.00031947
     198          0.247569        0.000000        0.00091442        0.00431572        0.00007378        0.00346053
     199          0.249551        0.000000        0.00038958        0.00114282        0.00963878        0.00022829
     200          0.251680        0.000000        0.00146848        0.00161710        0.01030479        0.00321468
     201          0.256953        0.000000        0.01099295        0.00622176        0.00160788        0.00625814
     202          0.268313        0.000000        0.00137015        0.00007641        0.00209913        0.00316263
     203          0.269125        0.000000        0.00048804        0.00152663        0.00000163        0.00207310
     204          0.273998        0.000000        0.00176249        0.00012314        0.00025211        0.00050558
     205          0.278607        0.000000        0.00009127        0.01159370        0.00133117        0.00169520
     206          0.282742        0.000000        0.00043816        0.00010869        0.00391579        0.00015219
     207          0.285403        0.000000        0.00093164        0.00159807        0.00006170        0.00006517
     208          0.288037        0.000000        0.00496021        0.00238410        0.00054359        0.00185305
     209          0.290990        0.000000        0.00142772        0.00325101        0.00020267        0.00004219
     210          0.298445        0.000000        0.00105396        0.00002682        0.00025068        0.00061992
     211          0.304741        0.000000        0.00459930        0.00067288        0.00001166        0.00165524
     212          0.311446        0.000000        0.00058803        0.00283622        0.00004177        0.00014130
     213          0.317839        0.000000        0.00055215        0.00095747        0.00079019        0.00001855
     214          0.321615        0.000000        0.00111145        0.00002576        0.00007143        0.00001125
     215          0.323481        0.000000        0.00157211        0.00211639        0.00002433        0.00048091
     216          0.330871        0.000000        0.00107975        0.00017800        0.00008804        0.00002297
     217          0.336182        0.000000        0.00252472        0.00193119        0.00004139        0.00006541
     218          0.342607        0.000000        0.00128229        0.00011862        0.00054281        0.00042850
     219          0.346543        0.000000        0.00026484        0.00005831        0.00016282        0.00106722
     220          0.348098        0.000000        0.00118332        0.00000021        0.00023922        0.00013071
     221          0.354514        0.000000        0.00102923        0.00039409        0.00001204        0.00001191
     222          0.357173        0.000000        0.00081639        0.00005049        0.00062495        0.00008137
     223          0.360061        0.000000        0.00004338        0.00001908        0.00007466        0.00004918
     224          0.362719        0.000000        0.00034578        0.00022047        0.00004990        0.00001385
     225          0.366531        0.000000        0.00002353        0.00000124        0.00014541        0.00000312
     226          0.369318        0.000000        0.00012797        0.00569488        0.00033884        0.00018223
     227          0.369607        0.000000        0.00025138        0.00022074        0.00002395        0.00017798
     228          0.375775        0.000000        0.00016508        0.00001134        0.00009901        0.00013639
     229          0.383813        0.000000        0.00385686        0.00033466        0.00000042        0.00281883
     230          0.389167        0.000000        0.00219684        0.00087007        0.00000002        0.00106752
     231          0.392077        0.000000        0.00006786        0.00102126        0.00075022        0.00060809
     232          0.398720        0.000000        0.00620425        0.00021385        0.00000321        0.00000013
     233          0.403110        0.000000        0.00296596        0.00006020        0.00010396        0.00004118
     234          0.407620        0.000000        0.00000407        0.00021600        0.00008582        0.00046930
     235          0.413228        0.000000        0.00197616        0.00010703        0.00042517        0.00012999
     236          0.416747        0.000000        0.00002148        0.00013578        0.00003376        0.00011386
     237          0.424526        0.000000        0.00052407        0.00098773        0.00002808        0.00014317
     238          0.429078        0.000000        0.00124861        0.00000230        0.00006813        0.00004086
     239          0.433134        0.000000        0.00019483        0.00034029        0.00000830        0.00004560
     240          0.436733        0.000000        0.00012366        0.00022235        0.00000127        0.00018463
     241          0.440283        0.000000        0.00002917        0.00000078        0.00000086        0.00003750
     242          0.441408        0.000000        0.00016186        0.00008701        0.00014071        0.00115291
     243          0.443829        0.000000        0.00003503        0.00013320        0.00086444        0.00003880
     244          0.446166        0.000000        0.00007121        0.00113346        0.00014596        0.00030366
     245          0.448221        0.000000        0.00069072        0.00045548        0.00015656        0.00018682
     246          0.451662        0.000000        0.00171627        0.00039354        0.00056709        0.00029779
     247          0.456626        0.000000        0.00032606        0.00030180        0.00025482        0.00011842
     248          0.460590        0.000000        0.00003523        0.00013770        0.00009519        0.00036925
     249          0.461225        0.000000        0.00110861        0.00112246        0.00002999        0.00010194
     250          0.467554        0.000000        0.00149849        0.00005941        0.00001127        0.00000574
     251          0.467958        0.000000        0.00128712        0.00019331        0.00000010        0.00018090
     252          0.470138        0.000000        0.00143615        0.00000988        0.00145273        0.00016859
     253          0.472758        0.000000        0.00011535        0.00000204        0.00002661        0.00003440
     254          0.477381        0.000000        0.00017307        0.00026209        0.00007037        0.00000074
     255          0.481054        0.000000        0.00191631        0.00022796        0.00034276        0.00001066
     256          0.482995        0.000000        0.00457446        0.00078962        0.00030293        0.00011916
     257          0.487411        0.000000        0.00115429        0.00000161        0.00001138        0.00159235
     258          0.493809        0.000000        0.00057004        0.00000153        0.00090043        0.00007303
     259          0.494913        0.000000        0.00057141        0.00079003        0.00000098        0.00203111