# Projected DOS for atomic kind C at iteration step i = 0, E(Fermi) =    -0.088732 a.u.
#     MO Eigenvalue [a.u.]      Occupation                 s                py                pz                px               d-2               d-1                d0               d+1               d+2
       1         -1.948023        1.000000        0.00863801        0.00402379        0.00385634        0.00333161        0.00032320        0.00038307        0.00037282        0.00034482        0.00025479
       2         -0.821460        1.000000        0.57663847        0.15127361        0.15679049        0.09943111        0.01892777        0.02319629        0.02037225        0.01648517        0.01696452
       3         -0.811963        1.000000        0.56531894        0.13803701        0.14749314        0.11159283        0.00467376        0.02132832        0.03068130        0.02517197        0.00566399
       4         -0.797722        1.000000        0.59423726        0.13091582        0.09440152        0.11110636        0.01858270        0.02139940        0.01593668        0.01151853        0.01912389
       5         -0.781634        1.000000        0.50610076        0.13287523        0.10962558        0.20439491        0.02336918        0.00601358        0.01066963        0.01985329        0.02691625
       6         -0.770427        1.000000        0.44298954        0.15788612        0.25517182        0.10696017        0.03038121        0.01409088        0.02026308        0.01060337        0.02598384
       7         -0.753554        1.000000        0.40544165        0.16072418        0.14407108        0.23699622        0.02983565        0.01944339        0.01869587        0.02064917        0.01059229
       8         -0.751119        1.000000        0.40669910        0.22078759        0.09900385        0.21902886        0.00984974        0.02017297        0.02242394        0.01565749        0.03087858
       9         -0.746850        1.000000        0.40305602        0.11337379        0.21850674        0.20934065        0.01875760        0.01909787        0.01614530        0.02727694        0.01739274
      10         -0.742622        1.000000        0.39505774        0.21234608        0.20322467        0.12398912        0.01744010        0.02905546        0.01329912        0.02056814        0.01788869
      11         -0.719750        1.000000        0.37717030        0.21555244        0.19744780        0.16058059        0.01497233        0.02192250        0.00997653        0.02974393        0.02769579
      12         -0.704754        1.000000        0.37754195        0.16408150        0.24664019        0.14305437        0.02812209        0.01781151        0.01731928        0.01764014        0.01994108
      13         -0.702201        1.000000        0.37159862        0.20396471        0.11928354        0.22062579        0.01574778        0.02222388        0.03028374        0.01612819        0.01510767
      14         -0.680769        1.000000        0.37426093        0.20077800        0.22631454        0.13349098        0.02226993        0.01709280        0.01659714        0.02187034        0.02289494
      15         -0.674155        1.000000        0.36959085        0.21696239        0.08461646        0.26370744        0.01986877        0.02400821        0.02488174        0.01683930        0.01108824
      16         -0.663304        1.000000        0.36501917        0.22508386        0.17517575        0.15101166        0.02112857        0.01787214        0.01602260        0.02185583        0.01727204
      17         -0.661001        1.000000        0.36259904        0.09589211        0.22478513        0.22672958        0.01896718        0.01468304        0.02162785        0.01427401        0.02491812
      18         -0.640852        1.000000        0.38993778        0.25065627        0.21270547        0.10522864        0.02144392        0.02113675        0.01460454        0.02648573        0.01898699
      19         -0.627425        1.000000        0.37487798        0.23019300        0.15008370        0.17773645        0.02443896        0.01771655        0.01795124        0.01148009        0.01915379
      20         -0.620192        1.000000        0.36555316        0.19419281        0.13682453        0.22592802        0.01530970        0.01734236        0.02011051        0.02143409        0.01500226
      21         -0.614406        1.000000        0.36325543        0.12504882        0.18724250        0.24016492        0.01101505        0.01558275        0.01773018        0.02494835        0.01790412
      22         -0.613651        1.000000        0.36650351        0.19245258        0.21513161        0.13934942        0.02219150        0.01730503        0.02046121        0.01712893        0.01353786
      23         -0.601473        1.000000        0.38604502        0.18559599        0.15091374        0.17427633        0.02043440        0.01144243        0.03307924        0.01965641        0.02681171
      24         -0.598864        1.000000        0.39466103        0.12874539        0.17144371        0.19349013        0.03364379        0.02271726        0.02091974        0.01703666        0.02376277
      25         -0.597368        1.000000        0.39110791        0.12597246        0.19127951        0.18206054        0.01495857        0.03884065        0.02282921        0.01825888        0.01975827
      26         -0.596179        1.000000        0.39184333        0.15971682        0.18037874        0.15590289        0.01918008        0.02495499        0.01739608        0.02452988        0.03010932
      27         -0.554786        1.000000        0.46177795        0.10685161        0.13051885        0.17763750        0.04208003        0.02926813        0.03199502        0.01937523        0.02176852
      28         -0.549210        1.000000        0.44667235        0.17977384        0.16361991        0.09295606        0.01948233        0.02735066        0.02907231        0.01817705        0.04664352
      29         -0.546115        1.000000        0.46667770        0.14541999        0.12250756        0.12150011        0.02596188        0.02944894        0.01528613        0.05724508        0.02321308
      30         -0.545194        1.000000        0.45888285        0.12034395        0.10410762        0.17608177        0.02411988        0.03320408        0.04544240        0.01778146        0.02690066
      31         -0.541276        1.000000        0.45829105        0.14498440        0.10654252        0.14570326        0.02829053        0.02573999        0.03507880        0.03106543        0.02846252
      32         -0.538340        1.000000        0.30143355        0.19091227        0.26485898        0.19905769        0.01227784        0.00835591        0.00804998        0.01475389        0.01269028
      33         -0.535325        1.000000        0.32485903        0.17736860        0.23488020        0.19573469        0.01415413        0.01769448        0.00806802        0.01287979        0.01738342
      34         -0.534672        1.000000        0.30012007        0.25313347        0.19723479        0.19785589        0.01456946        0.01300950        0.01065597        0.01160768        0.00605710
      35         -0.500777        1.000000        0.20893229        0.34430645        0.21686587        0.21938760        0.00455708        0.00580058        0.00500708        0.00759795        0.00684639
      36         -0.497962        1.000000        0.20308923        0.20886771        0.19684889        0.37258490        0.00760508        0.00545301        0.00606861        0.00630264        0.00598631
      37         -0.493761        1.000000        0.19991193        0.21043182        0.37290820        0.19387921        0.00559688        0.00552079        0.00712740        0.00408971        0.00437888
      38         -0.465821        1.000000        0.31724826        0.25373775        0.16740146        0.21056173        0.01644606        0.01634764        0.01912616        0.01235610        0.01015493
      39         -0.465046        1.000000        0.31885843        0.15616254        0.23734378        0.22801784        0.02035701        0.01073679        0.01514905        0.01422227        0.01278960
      40         -0.460101        1.000000        0.36370732        0.19763054        0.13200949        0.22951760        0.01522056        0.01605628        0.02503198        0.01605889        0.01793951
      41         -0.458978        1.000000        0.35537707        0.23639955        0.15882428        0.17281848        0.01698973        0.01582180        0.01229491        0.02311874        0.01962211
      42         -0.456287        1.000000        0.32814394        0.15158457        0.22325927        0.22639809        0.01005983        0.01920915        0.01337213        0.01141531        0.02281078
      43         -0.455506        1.000000        0.38714502        0.18059213        0.16520792        0.17537692        0.01537190        0.02463902        0.01855268        0.01678914        0.02039550
      44         -0.454446        1.000000        0.32668586        0.17803116        0.25358960        0.16804901        0.01824870        0.01400612        0.01190800        0.01722312        0.01547091
      45         -0.452166        1.000000        0.38655572        0.18601160        0.16784630        0.16453574        0.02039859        0.01883962        0.02167117        0.01935332        0.01751392
      46         -0.438540        1.000000        0.00600615        0.31464692        0.34030815        0.30596334        0.00773207        0.00725728        0.00698814        0.00810690        0.00776404
      47         -0.403771        1.000000        0.17117586        0.26382815        0.26107372        0.23214302        0.01875987        0.02099576        0.02398014        0.01899618        0.01766111
      48         -0.399357        1.000000        0.17156682        0.23533980        0.25384274        0.24829091        0.02790305        0.01248018        0.01793204        0.02594192        0.01646184
      49         -0.396574        1.000000        0.16752942        0.24684229        0.24298775        0.25382955        0.01681190        0.02555511        0.01841455        0.01671119        0.01892493
      50         -0.395275        1.000000        0.16831649        0.24927409        0.24800961        0.24492147        0.01756054        0.02070474        0.01531846        0.01976014        0.02429018
      51         -0.376639        1.000000        0.29896573        0.18199246        0.21529036        0.24063024        0.01748943        0.01919870        0.01553373        0.01737632        0.01276336
      52         -0.374339        1.000000        0.29184041        0.22796629        0.22611810        0.18499773        0.01432571        0.02027781        0.01467077        0.00943469        0.02061088
      53         -0.372061        1.000000        0.29072385        0.23312713        0.19608047        0.21451518        0.01872960        0.01272998        0.01704833        0.01592107        0.01688568
      54         -0.370592        1.000000        0.29732333        0.24606861        0.19006829        0.19241024        0.01115762        0.00908251        0.01868112        0.02346629        0.01911144
      55         -0.368140        1.000000        0.29123118        0.18213633        0.21210294        0.23910155        0.02018176        0.01975904        0.01371916        0.01555075        0.01064240
      56         -0.363076        1.000000        0.11487745        0.21622563        0.32226527        0.29632240        0.01539877        0.01442509        0.01337931        0.01295742        0.01398670
      57         -0.358648        1.000000        0.10361615        0.33512969        0.28090952        0.22348177        0.01260788        0.01166100        0.01646138        0.01512252        0.01356516
      58         -0.357443        1.000000        0.10236800        0.25547613        0.28018718        0.30044959        0.01265971        0.01422944        0.01367206        0.01229884        0.01431200
      59         -0.346875        1.000000        0.07849912        0.32896140        0.29301548        0.25272984        0.01963408        0.01851160        0.01935831        0.01655168        0.01858622
      60         -0.337936        1.000000        0.06980706        0.27570321        0.26482975        0.30195211        0.02552651        0.01630841        0.01697804        0.02317724        0.02121436
      61         -0.335593        1.000000        0.06279857        0.28482727        0.27787667        0.28230466        0.02092392        0.02153809        0.02143433        0.01884113        0.01741208
      62         -0.332721        1.000000        0.07001819        0.25671074        0.29703786        0.27721726        0.01895066        0.01994235        0.02170125        0.02145729        0.02099264
      63         -0.325723        1.000000        0.04459903        0.23241972        0.23258282        0.43907212        0.01958477        0.01631253        0.01923693        0.02024460        0.01990050
      64         -0.321847        1.000000        0.04722300        0.31334333        0.26558117        0.32328286        0.01655668        0.01917678        0.02058423        0.01689021        0.02065688
      65         -0.315771        1.000000        0.05943134        0.33206878        0.33170248        0.20343842        0.01454604        0.02541882        0.02380725        0.01713062        0.01541757
      66         -0.313278        1.000000        0.10959467        0.28644916        0.26359377        0.24255254        0.02792436        0.01698192        0.02579829        0.01494413        0.01754449
      67         -0.312555        1.000000        0.10347812        0.18782993        0.34474376        0.27267778        0.01893106        0.02182342        0.01866047        0.01948368        0.02168761
      68         -0.310544        1.000000        0.10310609        0.30637734        0.22287935        0.26987698        0.01971132        0.01787187        0.01554290        0.02191047        0.02545115
      69         -0.310134        1.000000        0.10821399        0.28983638        0.28287170        0.21851783        0.01575606        0.02247308        0.02121918        0.02247387        0.02034403
      70         -0.295249        1.000000        0.03997805        0.22972058        0.42546884        0.26253918        0.00952646        0.01164562        0.00823512        0.00949734        0.00967799
      71         -0.293750        1.000000        0.04231951        0.44387125        0.22409099        0.24848468        0.00975415        0.01058801        0.00930460        0.00897194        0.01106921
      72         -0.292820        1.000000        0.04368569        0.23831239        0.21435501        0.46081515        0.01125916        0.01099839        0.01058962        0.01007871        0.01015030
      73         -0.291440        1.000000        0.03967493        0.41392101        0.22527385        0.28164860        0.00931744        0.01111627        0.01270177        0.01067440        0.00988923
      74         -0.288972        1.000000        0.03611943        0.19012020        0.47909989        0.25035729        0.01024857        0.00913143        0.01058060        0.00761698        0.01396389
      75         -0.281332        1.000000        0.05939282        0.29297058        0.33725606        0.24983469        0.01696805        0.01682943        0.02415203        0.01816554        0.01809810
      76         -0.279090        1.000000        0.09489442        0.21587122        0.32526572        0.28627770        0.02206652        0.00827614        0.02295073        0.01413834        0.01988483
      77         -0.277984        1.000000        0.08855193        0.21477185        0.31461077        0.30792913        0.01977366        0.01859459        0.01679369        0.02279778        0.00970202
      78         -0.276875        1.000000        0.08561222        0.27872325        0.30240285        0.25835230        0.01171736        0.01870505        0.01996465        0.02100607        0.01936022
      79         -0.275781        1.000000        0.07148389        0.25135208        0.27892177        0.32424181        0.01724900        0.01778085        0.01505490        0.02133989        0.02062566
      80         -0.274762        1.000000        0.07805329        0.30164822        0.28842815        0.25207172        0.01233764        0.02449043        0.02274202        0.02070964        0.01013764
      81         -0.272935        1.000000        0.04009702        0.33189482        0.20249304        0.33784388        0.02787814        0.01834594        0.01397942        0.01586110        0.02122643
      82         -0.271637        1.000000        0.04538548        0.36962743        0.29118480        0.21176899        0.02358140        0.02256917        0.01472728        0.01672747        0.02007989
      83         -0.271024        1.000000        0.06544606        0.25045907        0.26205551        0.34000006        0.01798311        0.01648744        0.01921074        0.01757692        0.01952232
      84         -0.269118        1.000000        0.08366722        0.20430163        0.26217816        0.36881013        0.01920172        0.01869669        0.01409526        0.02167869        0.01544347
      85         -0.268624        1.000000        0.06985047        0.29126687        0.25362521        0.29913203        0.01530306        0.02012489        0.02004507        0.01816904        0.01829635
      86         -0.267912        1.000000        0.04367010        0.39567604        0.25175183        0.22043335        0.01705666        0.01810850        0.01890861        0.01785855        0.02508919
      87         -0.251345        1.000000        0.02190791        0.33114502        0.27072762        0.32394824        0.01133031        0.01056918        0.01515436        0.00977657        0.01177562
      88         -0.250348        1.000000        0.02173335        0.33632467        0.31523026        0.27124440        0.01126743        0.01052194        0.01254672        0.01204354        0.01197110
      89         -0.247403        1.000000        0.02433607        0.26778042        0.34224353        0.30792277        0.01412974        0.00889202        0.01472269        0.01201360        0.01352741
      90         -0.246945        1.000000        0.02350904        0.30877003        0.30376794        0.30918758        0.01292833        0.01486312        0.00661799        0.01682428        0.00919617
      91         -0.227256        1.000000        0.01214013        0.30395996        0.21369465        0.37126462        0.03041639        0.02343692        0.01735233        0.01897738        0.03070027
      92         -0.221879        1.000000        0.01168479        0.18475780        0.42287053        0.27435902        0.01359128        0.02464323        0.03472313        0.03739763        0.01274209
      93         -0.219864        1.000000        0.01200134        0.36407078        0.25822912        0.25237989        0.03064352        0.02625714        0.01933944        0.02019054        0.02633777
      94         -0.215798        1.000000        0.02124023        0.31678994        0.28330440        0.25179066        0.01772996        0.04064500        0.03026046        0.01734786        0.02341641
      95         -0.214585        1.000000        0.02023520        0.15330917        0.35595730        0.34598031        0.01980435        0.03054389        0.02347211        0.01901793        0.03698957
      96         -0.212855        1.000000        0.02092685        0.39581934        0.18631322        0.26661209        0.03205070        0.01431039        0.03458572        0.02752274        0.02377690
      97         -0.211537        1.000000        0.02148909        0.31519375        0.22905300        0.30521661        0.03620443        0.02128158        0.02042513        0.02999217        0.02436230
      98         -0.210727        1.000000        0.02156962        0.25492232        0.33811185        0.25634848        0.02742067        0.02318216        0.02243339        0.03700491        0.02316132
      99         -0.205438        1.000000        0.00539314        0.24094739        0.26714824        0.37729858        0.01569521        0.03603387        0.02123418        0.01526758        0.02444815
     100         -0.202819        1.000000        0.00658739        0.32710883        0.36743751        0.19191675        0.01272316        0.03466264        0.01474403        0.01875640        0.03317007
     101         -0.201733        1.000000        0.00868789        0.40977017        0.24540995        0.22670636        0.01606197        0.03326233        0.02775132        0.01977872        0.02019065
     102         -0.200701        1.000000        0.00944001        0.31858853        0.22607246        0.33233716        0.03712838        0.01929137        0.01738128        0.01694172        0.02974561
     103         -0.200550        1.000000        0.00916847        0.35147760        0.20409941        0.32662153        0.04910731        0.01127359        0.02212131        0.01710271        0.01885919
     104         -0.199304        1.000000        0.01008487        0.37395174        0.32136265        0.17939191        0.02071936        0.02881040        0.03080351        0.02224207        0.01855321
     105         -0.198516        1.000000        0.00911166        0.13326504        0.40731243        0.33659988        0.01158891        0.01733013        0.02454880        0.03282278        0.03266329
     106         -0.197707        1.000000        0.00729778        0.30889791        0.22824389        0.33999496        0.03820374        0.01072116        0.02148659        0.03564770        0.01105651
     107         -0.197515        1.000000        0.00683918        0.20816826        0.34097406        0.32923338        0.01234447        0.01863922        0.03063790        0.03461489        0.02089631
     108         -0.145917        1.000000        0.00777703        0.27319602        0.29673745        0.28968501        0.02684475        0.02725079        0.03325993        0.03125087        0.01865095
     109         -0.144422        1.000000        0.00757714        0.33554807        0.19713703        0.33035336        0.04223591        0.02188173        0.01643166        0.02165961        0.03662606
     110         -0.143703        1.000000        0.00777595        0.31957061        0.27748437        0.26074784        0.02433421        0.03636149        0.02790105        0.02971955        0.02186153
     111         -0.142290        1.000000        0.00773228        0.30261005        0.24006559        0.31512087        0.03441040        0.02227508        0.01898012        0.02623520        0.03656000
     112         -0.141730        1.000000        0.00775347        0.23196629        0.33478578        0.29274634        0.02857793        0.02119495        0.03140282        0.03336555        0.02431272
     113         -0.137200        1.000000        0.00797480        0.29078281        0.27653017        0.29824080        0.03129376        0.01603834        0.02027059        0.02960875        0.03438606
     114         -0.136711        1.000000        0.00808607        0.25328916        0.41425400        0.19536127        0.01654537        0.04415460        0.03148409        0.02112140        0.01854792
     115         -0.133611        1.000000        0.00801206        0.39053898        0.24607103        0.22333318        0.02276949        0.04018187        0.02807118        0.01937888        0.02444718
     116         -0.132472        1.000000        0.00798679        0.19218827        0.30355907        0.36193591        0.01943646        0.01800824        0.03544964        0.03667013        0.02758905
     117         -0.099405        1.000000        0.00755709        0.27637604        0.34776844        0.24233151        0.02428703        0.02726991        0.03127586        0.02776917        0.01669429
     118         -0.096938        1.000000        0.00756571        0.33964082        0.25095223        0.27590933        0.02945727        0.02532067        0.02105460        0.02306883        0.02920863
     119         -0.095290        1.000000        0.00763158        0.23902783        0.25062268        0.37556800        0.03132390        0.01574466        0.02106633        0.03314327        0.02894228
     120         -0.089655        1.000000        0.00741945        0.30603830        0.25259873        0.30450068        0.02885265        0.02554652        0.02087305        0.02268206        0.03230240
     121         -0.088732        1.000000        0.00789062        0.28997043        0.33677317        0.23622083        0.01690038        0.03785714        0.03227067        0.02220943        0.02192273
     122         -0.034200        0.000000        0.00583526        0.21306614        0.30490731        0.29311109        0.03089930        0.04500460        0.03373458        0.03473685        0.03779826
     123         -0.033658        0.000000        0.00495227        0.30425414        0.26326356        0.24373037        0.03468572        0.03447525        0.03459033        0.04189612        0.03797078
     124         -0.033108        0.000000        0.00504002        0.27452040        0.25131762        0.28423663        0.04237593        0.03087323        0.04171345        0.03491391        0.03417718
     125         -0.000000        0.000000        0.00000000        0.00000000        0.00000000        0.00000000        0.00000000        0.00000000        0.00000000        0.00000000        0.00000000
     126         -0.000000        0.000000        0.00000000        0.00000000        0.00000000        0.00000000        0.00000000        0.00000000        0.00000000        0.00000000        0.00000000
     127         -0.000000        0.000000        0.00000000        0.00000000        0.00000000        0.00000000        0.00000000        0.00000000        0.00000000        0.00000000        0.00000000
     128         -0.000000        0.000000        0.00000000        0.00000000        0.00000000        0.00000000        0.00000000        0.00000000        0.00000000        0.00000000        0.00000000
     129         -0.000000        0.000000        0.00000000        0.00000000        0.00000000        0.00000000        0.00000000        0.00000000        0.00000000        0.00000000        0.00000000
     130         -0.000000        0.000000        0.00000000        0.00000000        0.00000000        0.00000000        0.00000000        0.00000000        0.00000000        0.00000000        0.00000000
     131         -0.000000        0.000000        0.00000000        0.00000000        0.00000000        0.00000000        0.00000000        0.00000000        0.00000000        0.00000000        0.00000000
     132         -0.000000        0.000000        0.00000000        0.00000000        0.00000000        0.00000000        0.00000000        0.00000000        0.00000000        0.00000000        0.00000000
     133         -0.000000        0.000000        0.00000000        0.00000000        0.00000000        0.00000000        0.00000000        0.00000000        0.00000000        0.00000000        0.00000000
     134         -0.000000        0.000000        0.00000000        0.00000000        0.00000000        0.00000000        0.00000000        0.00000000        0.00000000        0.00000000        0.00000000
     135         -0.000000        0.000000        0.00000000        0.00000000        0.00000000        0.00000000        0.00000000        0.00000000        0.00000000        0.00000000        0.00000000
     136         -0.000000        0.000000        0.00000000        0.00000000        0.00000000        0.00000000        0.00000000        0.00000000        0.00000000        0.00000000        0.00000000
     137         -0.000000        0.000000        0.00000000        0.00000000        0.00000000        0.00000000        0.00000000        0.00000000        0.00000000        0.00000000        0.00000000
     138         -0.000000        0.000000        0.00000000        0.00000000        0.00000000        0.00000000        0.00000000        0.00000000        0.00000000        0.00000000        0.00000000
     139         -0.000000        0.000000        0.00000000        0.00000000        0.00000000        0.00000000        0.00000000        0.00000000        0.00000000        0.00000000        0.00000000
     140         -0.000000        0.000000        0.00000000        0.00000000        0.00000000        0.00000000        0.00000000        0.00000000        0.00000000        0.00000000        0.00000000
     141         -0.000000        0.000000        0.00000000        0.00000000        0.00000000        0.00000000        0.00000000        0.00000000        0.00000000        0.00000000        0.00000000
     142         -0.000000        0.000000        0.00000000        0.00000000        0.00000000        0.00000000        0.00000000        0.00000000        0.00000000        0.00000000        0.00000000
     143         -0.000000        0.000000        0.00000000        0.00000000        0.00000000        0.00000000        0.00000000        0.00000000        0.00000000        0.00000000        0.00000000
     144         -0.000000        0.000000        0.00000000        0.00000000        0.00000000        0.00000000        0.00000000        0.00000000        0.00000000        0.00000000        0.00000000