# Projected DOS for atomic kind Li at iteration step i = 0, E(Fermi) =    -0.112723 a.u.
#     MO Eigenvalue [a.u.]      Occupation                 s                py                pz                px
       1         -1.926200        1.000000        0.99399571        0.00000195        0.00000167        0.00000922
       2         -0.819386        1.000000        0.05388764        0.00026127        0.00006344        0.00000627
       3         -0.801828        1.000000        0.01885641        0.00052842        0.00182718        0.00055514
       4         -0.795164        1.000000        0.01082568        0.00074649        0.00110049        0.00018700
       5         -0.784512        1.000000        0.00078230        0.00063414        0.00011466        0.00079863
       6         -0.774061        1.000000        0.00017042        0.00000526        0.00012417        0.00024687
       7         -0.759746        1.000000        0.00126388        0.00025708        0.00001541        0.00002178
       8         -0.752820        1.000000        0.00006196        0.00002578        0.00000137        0.00003331
       9         -0.750903        1.000000        0.00006994        0.00000451        0.00003064        0.00002269
      10         -0.747960        1.000000        0.00003159        0.00000164        0.00000069        0.00000370
      11         -0.721108        1.000000        0.00011927        0.00000563        0.00007087        0.00004298
      12         -0.718933        1.000000        0.00004027        0.00000000        0.00000000        0.00007563
      13         -0.712051        1.000000        0.00002969        0.00001531        0.00002403        0.00000561
      14         -0.689981        1.000000        0.00006042        0.00000582        0.00001584        0.00006197
      15         -0.684140        1.000000        0.00001245        0.00001399        0.00001343        0.00000560
      16         -0.681449        1.000000        0.00001136        0.00000024        0.00000099        0.00000945
      17         -0.680486        1.000000        0.00003055        0.00000277        0.00003336        0.00000951
      18         -0.640038        1.000000        0.00000419        0.00004607        0.00002724        0.00003886
      19         -0.638901        1.000000        0.00000673        0.00000306        0.00000084        0.00000045
      20         -0.638395        1.000000        0.00000225        0.00000134        0.00001102        0.00000166
      21         -0.636404        1.000000        0.00000453        0.00000067        0.00000315        0.00000198
      22         -0.635498        1.000000        0.00000513        0.00002060        0.00003588        0.00009093
      23         -0.620387        1.000000        0.00001330        0.00001458        0.00001402        0.00003790
      24         -0.618359        1.000000        0.00000531        0.00002938        0.00004601        0.00008668
      25         -0.617694        1.000000        0.00000220        0.00000020        0.00000405        0.00000315
      26         -0.616667        1.000000        0.00000701        0.00000029        0.00000220        0.00001479
      27         -0.570783        1.000000        0.00000817        0.00000068        0.00000852        0.00002057
      28         -0.568567        1.000000        0.00000261        0.00000243        0.00000125        0.00000100
      29         -0.565773        1.000000        0.00000699        0.00000030        0.00001024        0.00003048
      30         -0.563815        1.000000        0.00000719        0.00003111        0.00001341        0.00001224
      31         -0.560857        1.000000        0.00000125        0.00001951        0.00005439        0.00002990
      32         -0.558677        1.000000        0.00000056        0.00003672        0.00006746        0.00005284
      33         -0.558009        1.000000        0.00000483        0.00000415        0.00000756        0.00000994
      34         -0.556094        1.000000        0.00002181        0.00001866        0.00003298        0.00001712
      35         -0.520936        1.000000        0.00000996        0.00001909        0.00000618        0.00000471
      36         -0.517824        1.000000        0.00000013        0.00001837        0.00000111        0.00000008
      37         -0.515901        1.000000        0.00000335        0.00000060        0.00000156        0.00001421
      38         -0.487100        1.000000        0.00001182        0.00001693        0.00000176        0.00000272
      39         -0.482365        1.000000        0.00000700        0.00000031        0.00000497        0.00000899
      40         -0.481506        1.000000        0.00000346        0.00000018        0.00000054        0.00000232
      41         -0.479442        1.000000        0.00000883        0.00001416        0.00001058        0.00000343
      42         -0.478324        1.000000        0.00000138        0.00000038        0.00000415        0.00000642
      43         -0.478006        1.000000        0.00000069        0.00000114        0.00000133        0.00000065
      44         -0.476559        1.000000        0.00000075        0.00000709        0.00000598        0.00000088
      45         -0.474487        1.000000        0.00001228        0.00000003        0.00000118        0.00002099
      46         -0.462150        1.000000        0.00064283        0.00000199        0.00000919        0.00000031
      47         -0.425910        1.000000        0.00002416        0.00003235        0.00003708        0.00007474
      48         -0.420087        1.000000        0.00000137        0.00000403        0.00000287        0.00000367
      49         -0.419049        1.000000        0.00000267        0.00002487        0.00000004        0.00004474
      50         -0.417576        1.000000        0.00000407        0.00000053        0.00000500        0.00000491
      51         -0.398710        1.000000        0.00000273        0.00002554        0.00001144        0.00000030
      52         -0.397420        1.000000        0.00003062        0.00000346        0.00000830        0.00000068
      53         -0.396145        1.000000        0.00002090        0.00001765        0.00000287        0.00001171
      54         -0.392089        1.000000        0.00002030        0.00000024        0.00001999        0.00004389
      55         -0.390340        1.000000        0.00000409        0.00000255        0.00000294        0.00000464
      56         -0.383134        1.000000        0.00000392        0.00001323        0.00000018        0.00000099
      57         -0.382887        1.000000        0.00001914        0.00003906        0.00000367        0.00000003
      58         -0.380784        1.000000        0.00000866        0.00002043        0.00000841        0.00000275
      59         -0.359540        1.000000        0.00224656        0.00002998        0.00029151        0.00017745
      60         -0.358827        1.000000        0.00107704        0.00004945        0.00001530        0.00025120
      61         -0.357832        1.000000        0.00149459        0.00003172        0.00002424        0.00009797
      62         -0.354560        1.000000        0.00012116        0.00000117        0.00006692        0.00000346
      63         -0.343171        1.000000        0.00001505        0.00290360        0.00440079        0.00002615
      64         -0.342683        1.000000        0.00015164        0.00303400        0.00178441        0.00194317
      65         -0.337627        1.000000        0.00005631        0.00013697        0.00029214        0.00004708
      66         -0.335509        1.000000        0.00000066        0.00019486        0.00000498        0.00094490
      67         -0.335076        1.000000        0.00001679        0.00008685        0.00002167        0.00000996
      68         -0.334484        1.000000        0.00001259        0.00009330        0.00112615        0.00001211
      69         -0.331392        1.000000        0.00000214        0.00176456        0.00046108        0.00410399
      70         -0.319123        1.000000        0.00000928        0.00000691        0.00000923        0.00005073
      71         -0.317284        1.000000        0.00002620        0.00001946        0.00025851        0.00011566
      72         -0.315887        1.000000        0.00000024        0.00000071        0.00002855        0.00000034
      73         -0.313426        1.000000        0.00000395        0.00002336        0.00000692        0.00002038
      74         -0.313097        1.000000        0.00000258        0.00007108        0.00002081        0.00003827
      75         -0.304159        1.000000        0.00000482        0.00000866        0.00000853        0.00002871
      76         -0.300726        1.000000        0.00000109        0.00000054        0.00001227        0.00000936
      77         -0.299820        1.000000        0.00001015        0.00005622        0.00000123        0.00002903
      78         -0.298658        1.000000        0.00000463        0.00000796        0.00005618        0.00001223
      79         -0.297499        1.000000        0.00000683        0.00001093        0.00000978        0.00000788
      80         -0.295934        1.000000        0.00004208        0.00003409        0.00005185        0.00004994
      81         -0.294564        1.000000        0.00000730        0.00003745        0.00000037        0.00000833
      82         -0.293152        1.000000        0.00001147        0.00004996        0.00000153        0.00000001
      83         -0.292490        1.000000        0.00000199        0.00003345        0.00000171        0.00011767
      84         -0.291491        1.000000        0.00000658        0.00000514        0.00000615        0.00000769
      85         -0.289463        1.000000        0.00000218        0.00000202        0.00002436        0.00004169
      86         -0.285955        1.000000        0.00003369        0.00000107        0.00019776        0.00001382
      87         -0.274626        1.000000        0.00000051        0.00002329        0.00000144        0.00010546
      88         -0.274537        1.000000        0.00000211        0.00000274        0.00000613        0.00000470
      89         -0.271317        1.000000        0.00000019        0.00001265        0.00002490        0.00000184
      90         -0.269306        1.000000        0.00000033        0.00000755        0.00000009        0.00002848
      91         -0.247954        1.000000        0.00000581        0.00003595        0.00000631        0.00009239
      92         -0.244670        1.000000        0.00000233        0.00005537        0.00000129        0.00002924
      93         -0.243173        1.000000        0.00000120        0.00000216        0.00001066        0.00000762
      94         -0.240633        1.000000        0.00000096        0.00000022        0.00000595        0.00000138
      95         -0.239397        1.000000        0.00000233        0.00000936        0.00000646        0.00002013
      96         -0.237108        1.000000        0.00000112        0.00000010        0.00000050        0.00001162
      97         -0.235790        1.000000        0.00000020        0.00000873        0.00000058        0.00001102
      98         -0.235082        1.000000        0.00000226        0.00002089        0.00000707        0.00001532
      99         -0.229649        1.000000        0.00000021        0.00000074        0.00000766        0.00000015
     100         -0.226788        1.000000        0.00000154        0.00000818        0.00000561        0.00001540
     101         -0.225204        1.000000        0.00000055        0.00000006        0.00000070        0.00000189
     102         -0.224241        1.000000        0.00000006        0.00003636        0.00000316        0.00010186
     103         -0.222643        1.000000        0.00000287        0.00004342        0.00000670        0.00013149
     104         -0.222181        1.000000        0.00000152        0.00008277        0.00000204        0.00017316
     105         -0.221641        1.000000        0.00000143        0.00000024        0.00001181        0.00000007
     106         -0.219677        1.000000        0.00000202        0.00001695        0.00000365        0.00000182
     107         -0.219364        1.000000        0.00000993        0.00000038        0.00000005        0.00000183
     108         -0.169504        1.000000        0.00000094        0.00000635        0.00000220        0.00000134
     109         -0.168423        1.000000        0.00000182        0.00002264        0.00000076        0.00006008
     110         -0.167286        1.000000        0.00000186        0.00003618        0.00000048        0.00003307
     111         -0.166314        1.000000        0.00000486        0.00001644        0.00000475        0.00000877
     112         -0.165026        1.000000        0.00003668        0.00004858        0.00005325        0.00003618
     113         -0.161646        1.000000        0.00000280        0.00003781        0.00000854        0.00003909
     114         -0.159806        1.000000        0.00000025        0.00000584        0.00001637        0.00000426
     115         -0.156453        1.000000        0.00001822        0.00002826        0.00001951        0.00000017
     116         -0.155046        1.000000        0.00000077        0.00002488        0.00000375        0.00003741
     117         -0.122613        1.000000        0.00000096        0.00000060        0.00000692        0.00001951
     118         -0.121491        1.000000        0.00000293        0.00001438        0.00000420        0.00000002
     119         -0.119209        1.000000        0.00000295        0.00000124        0.00001386        0.00008303
     120         -0.112978        1.000000        0.00000639        0.00002306        0.00000974        0.00003810
     121         -0.112723        1.000000        0.00001103        0.00000035        0.00000701        0.00000933
     122         -0.058929        0.000000        0.00001445        0.00024045        0.00019755        0.00007330
     123         -0.057775        0.000000        0.00000149        0.00027240        0.00016760        0.00032177
     124         -0.057068        0.000000        0.00002835        0.00059251        0.00000061        0.00003738
     125         -0.000000        0.000000        0.00000000        0.00000000        0.00000000        0.00000000
     126         -0.000000        0.000000        0.00000000        0.00000000        0.00000000        0.00000000
     127         -0.000000        0.000000        0.00000000        0.00000000        0.00000000        0.00000000
     128         -0.000000        0.000000        0.00000000        0.00000000        0.00000000        0.00000000
     129         -0.000000        0.000000        0.00000000        0.00000000        0.00000000        0.00000000
     130         -0.000000        0.000000        0.00000000        0.00000000        0.00000000        0.00000000
     131         -0.000000        0.000000        0.00000000        0.00000000        0.00000000        0.00000000
     132         -0.000000        0.000000        0.00000000        0.00000000        0.00000000        0.00000000
     133         -0.000000        0.000000        0.00000000        0.00000000        0.00000000        0.00000000
     134         -0.000000        0.000000        0.00000000        0.00000000        0.00000000        0.00000000
     135         -0.000000        0.000000        0.00000000        0.00000000        0.00000000        0.00000000
     136         -0.000000        0.000000        0.00000000        0.00000000        0.00000000        0.00000000
     137         -0.000000        0.000000        0.00000000        0.00000000        0.00000000        0.00000000
     138         -0.000000        0.000000        0.00000000        0.00000000        0.00000000        0.00000000
     139         -0.000000        0.000000        0.00000000        0.00000000        0.00000000        0.00000000
     140         -0.000000        0.000000        0.00000000        0.00000000        0.00000000        0.00000000
     141         -0.000000        0.000000        0.00000000        0.00000000        0.00000000        0.00000000
     142         -0.000000        0.000000        0.00000000        0.00000000        0.00000000        0.00000000
     143         -0.000000        0.000000        0.00000000        0.00000000        0.00000000        0.00000000
     144         -0.000000        0.000000        0.00000000        0.00000000        0.00000000        0.00000000
     145         -0.000000        0.000000        0.00000000        0.00000000        0.00000000        0.00000000
     146         -0.000000        0.000000        0.00000000        0.00000000        0.00000000        0.00000000
     147         -0.000000        0.000000        0.00000000        0.00000000        0.00000000        0.00000000
     148         -0.000000        0.000000        0.00000000        0.00000000        0.00000000        0.00000000
     149         -0.000000        0.000000        0.00000000        0.00000000        0.00000000        0.00000000
     150         -0.000000        0.000000        0.00000000        0.00000000        0.00000000        0.00000000
     151         -0.000000        0.000000        0.00000000        0.00000000        0.00000000        0.00000000
     152         -0.000000        0.000000        0.00000000        0.00000000        0.00000000        0.00000000
     153         -0.000000        0.000000        0.00000000        0.00000000        0.00000000        0.00000000
     154         -0.000000        0.000000        0.00000000        0.00000000        0.00000000        0.00000000
     155         -0.000000        0.000000        0.00000000        0.00000000        0.00000000        0.00000000
     156         -0.000000        0.000000        0.00000000        0.00000000        0.00000000        0.00000000
     157         -0.000000        0.000000        0.00000000        0.00000000        0.00000000        0.00000000
     158         -0.000000        0.000000        0.00000000        0.00000000        0.00000000        0.00000000
     159         -0.000000        0.000000        0.00000000        0.00000000        0.00000000        0.00000000
     160         -0.000000        0.000000        0.00000000        0.00000000        0.00000000        0.00000000
     161         -0.000000        0.000000        0.00000000        0.00000000        0.00000000        0.00000000
     162         -0.000000        0.000000        0.00000000        0.00000000        0.00000000        0.00000000
     163         -0.000000        0.000000        0.00000000        0.00000000        0.00000000        0.00000000
     164         -0.000000        0.000000        0.00000000        0.00000000        0.00000000        0.00000000
     165         -0.000000        0.000000        0.00000000        0.00000000        0.00000000        0.00000000
     166         -0.000000        0.000000        0.00000000        0.00000000        0.00000000        0.00000000
     167         -0.000000        0.000000        0.00000000        0.00000000        0.00000000        0.00000000
     168         -0.000000        0.000000        0.00000000        0.00000000        0.00000000        0.00000000
     169         -0.000000        0.000000        0.00000000        0.00000000        0.00000000        0.00000000
     170         -0.000000        0.000000        0.00000000        0.00000000        0.00000000        0.00000000
     171         -0.000000        0.000000        0.00000000        0.00000000        0.00000000        0.00000000
     172          0.143703        0.000000        0.00034906        0.00001381        0.00006706        0.00009738
     173          0.161358        0.000000        0.00414840        0.00384933        0.00012676        0.00128160
     174          0.172737        0.000000        0.00018438        0.00000007        0.00009185        0.00012571
     175          0.190790        0.000000        0.00003597        0.00108841        0.00007687        0.00107109
     176          0.198035        0.000000        0.00270873        0.00115845        0.00007946        0.00161993
     177          0.207918        0.000000        0.00004863        0.00162342        0.00032228        0.00000932
     178          0.211022        0.000000        0.00161316        0.00000141        0.00031737        0.00000242
     179          0.217503        0.000000        0.00174058        0.00387073        0.00002972        0.00036964
     180          0.221604        0.000000        0.00108368        0.00009190        0.00054832        0.00000017
     181          0.227207        0.000000        0.00107219        0.00011485        0.00032778        0.00001242
     182          0.228574        0.000000        0.00311504        0.00172445        0.00089514        0.00014586
     183          0.232080        0.000000        0.00000679        0.00100814        0.00029175        0.00006194
     184          0.237181        0.000000        0.00000409        0.00063681        0.00033687        0.00005999
     185          0.243137        0.000000        0.00057254        0.00037958        0.00006907        0.00000349
     186          0.247132        0.000000        0.00164446        0.00058719        0.00005040        0.00000112
     187          0.250087        0.000000        0.00116639        0.00077132        0.00418208        0.00133312
     188          0.251440        0.000000        0.00040388        0.00076679        0.00938876        0.00006929
     189          0.255241        0.000000        0.00396252        0.00062011        0.00096696        0.00062671
     190          0.260022        0.000000        0.01682203        0.00451778        0.00445147        0.02144379
     191          0.265054        0.000000        0.00067701        0.00335395        0.00032923        0.00690786
     192          0.266666        0.000000        0.01093778        0.00133329        0.00714351        0.00052665
     193          0.272666        0.000000        0.01688084        0.00376156        0.01220114        0.00000782
     194          0.278009        0.000000        0.00349794        0.00008031        0.00035432        0.01942835
     195          0.283446        0.000000        0.00101150        0.00196424        0.02696222        0.00445496
     196          0.286043        0.000000        0.00265479        0.00686960        0.00512513        0.01184757
     197          0.290133        0.000000        0.00453296        0.00121288        0.00012512        0.00012631
     198          0.293436        0.000000        0.00036727        0.00503918        0.00025701        0.00510319
     199          0.295861        0.000000        0.00060886        0.00023874        0.01261304        0.00061057
     200          0.298638        0.000000        0.00050614        0.00065718        0.00557318        0.00144274
     201          0.302676        0.000000        0.01023395        0.00737926        0.00140694        0.00557612
     202          0.313530        0.000000        0.00136959        0.00022247        0.00208732        0.00248120
     203          0.315558        0.000000        0.00030870        0.00183546        0.00010060        0.00234423
     204          0.321527        0.000000        0.00083199        0.00004308        0.00000112        0.00026688
     205          0.324011        0.000000        0.00036989        0.01080251        0.00117190        0.00223954
     206          0.328434        0.000000        0.00052938        0.00117740        0.00370006        0.00010266
     207          0.331480        0.000000        0.00078397        0.00175108        0.00006623        0.00014422
     208          0.333553        0.000000        0.00381423        0.00139192        0.00068703        0.00162980
     209          0.337824        0.000000        0.00116238        0.00302040        0.00024052        0.00001486
     210          0.344545        0.000000        0.00061193        0.00000130        0.00016506        0.00042363
     211          0.351416        0.000000        0.00550505        0.00039865        0.00000376        0.00172468
     212          0.356674        0.000000        0.00053354        0.00262140        0.00006970        0.00013281
     213          0.363977        0.000000        0.00048416        0.00034129        0.00072713        0.00000329
     214          0.368342        0.000000        0.00157455        0.00017883        0.00001956        0.00018299
     215          0.369913        0.000000        0.00060542        0.00206090        0.00005347        0.00031911
     216          0.376689        0.000000        0.00134476        0.00020559        0.00009058        0.00001033
     217          0.381803        0.000000        0.00203092        0.00136306        0.00007145        0.00007407
     218          0.388795        0.000000        0.00157530        0.00012450        0.00046649        0.00054464
     219          0.393188        0.000000        0.00160018        0.00002654        0.00024994        0.00022065
     220          0.393596        0.000000        0.00009646        0.00004838        0.00008293        0.00070082
     221          0.401165        0.000000        0.00107581        0.00020089        0.00007662        0.00004569
     222          0.402955        0.000000        0.00027575        0.00025569        0.00045653        0.00012052
     223          0.405762        0.000000        0.00014593        0.00015493        0.00012565        0.00003866
     224          0.409144        0.000000        0.00028236        0.00024526        0.00004967        0.00001676
     225          0.411621        0.000000        0.00000874        0.00000090        0.00012050        0.00003365
     226          0.414788        0.000000        0.00017247        0.00542734        0.00029047        0.00027916
     227          0.415238        0.000000        0.00026941        0.00007341        0.00001352        0.00015880
     228          0.421381        0.000000        0.00010328        0.00005876        0.00012445        0.00015655
     229          0.430562        0.000000        0.00479446        0.00012866        0.00000262        0.00184150
     230          0.435523        0.000000        0.00096860        0.00101660        0.00000982        0.00206041
     231          0.438817        0.000000        0.00002912        0.00116291        0.00069407        0.00055768
     232          0.444238        0.000000        0.00692722        0.00022505        0.00000005        0.00000064
     233          0.449685        0.000000        0.00167640        0.00000872        0.00011675        0.00000051
     234          0.454225        0.000000        0.00014094        0.00017724        0.00002641        0.00040745
     235          0.459404        0.000000        0.00219123        0.00006746        0.00045819        0.00008201
     236          0.463194        0.000000        0.00003034        0.00018343        0.00008021        0.00018174
     237          0.470823        0.000000        0.00037870        0.00083625        0.00001890        0.00014074
     238          0.474628        0.000000        0.00106558        0.00000714        0.00003332        0.00001185
     239          0.479086        0.000000        0.00009104        0.00007138        0.00000750        0.00000022
     240          0.483076        0.000000        0.00009073        0.00028170        0.00000615        0.00053999
     241          0.486840        0.000000        0.00013405        0.00037890        0.00000413        0.00023988
     242          0.487842        0.000000        0.00003460        0.00002723        0.00000240        0.00036619
     243          0.489586        0.000000        0.00029111        0.00000009        0.00050163        0.00000003
     244          0.491498        0.000000        0.00014176        0.00040302        0.00025757        0.00075379
     245          0.494817        0.000000        0.00048323        0.00125236        0.00043064        0.00003477
     246          0.497297        0.000000        0.00127599        0.00021946        0.00046569        0.00027931
     247          0.502504        0.000000        0.00049037        0.00009739        0.00012199        0.00000440
     248          0.507420        0.000000        0.00029359        0.00038966        0.00030784        0.00036347
     249          0.508192        0.000000        0.00085313        0.00100193        0.00000000        0.00005354
     250          0.514004        0.000000        0.00279119        0.00008939        0.00000063        0.00009339
     251          0.515376        0.000000        0.00002723        0.00006663        0.00003505        0.00005855
     252          0.516702        0.000000        0.00147864        0.00000017        0.00120902        0.00009288
     253          0.520648        0.000000        0.00016812        0.00000079        0.00002879        0.00005444
     254          0.524695        0.000000        0.00028147        0.00022464        0.00010360        0.00001167
     255          0.527453        0.000000        0.00139971        0.00027199        0.00022450        0.00003772
     256          0.530107        0.000000        0.00405139        0.00059142        0.00031229        0.00021170
     257          0.535210        0.000000        0.00133839        0.00000289        0.00003686        0.00147552
     258          0.540274        0.000000        0.00056823        0.00000255        0.00090291        0.00005522
     259          0.543182        0.000000        0.00050821        0.00086154        0.00000250        0.00199434