#     Step Nr.          Time[fs]        Kin.[a.u.]          Temp[K]            Pot.[a.u.]        Cons Qty[a.u.]        UsedTime[s]
         0            0.000000         0.084078947       300.000000000      -347.954126482      -347.870047535         0.000000000
         1            1.000000         0.078944670       281.680513396      -347.951662493      -347.870194058       274.127252117
         2            2.000000         0.069557428       248.186127915      -347.944255999      -347.870011300        70.289804876
         3            3.000000         0.060445246       215.673178065      -347.933931944      -347.869855148       184.890499219
         4            4.000000         0.048912210       174.522438888      -347.923873007      -347.870553648        54.115215540
         5            5.000000         0.039806065       142.031030954      -347.914467090      -347.869641283       181.201330289
         6            6.000000         0.034777423       124.088459322      -347.909474257      -347.869615000       197.049381763
         7            7.000000         0.039610777       141.334228136      -347.908862070      -347.869593164       174.452486321
         8            8.000000         0.048847543       174.291701577      -347.920034596      -347.877216710       180.177744344
         9            9.000000         0.056164453       200.398987400      -347.918706407      -347.869663884       174.317404091
        10           10.000000         0.060041351       214.232050199      -347.928504249      -347.872642721       184.042463973
