      61
 i =        0, time =        0.000, E =      -347.9541264823
 Li        -0.0000000351        0.0000000963       -0.0000002492
  C        -0.0061407819       -0.0046361662       -0.0019711060
  C        -0.0004817889       -0.0117767365        0.0005318340
  C         0.0014065225       -0.0159159590       -0.0026423653
  C         0.0021313616       -0.0045777382       -0.0089333690
  C        -0.0004600193        0.0004077968       -0.0122644276
  C         0.0045640510       -0.0015253241        0.0010031291
  C        -0.0133631257       -0.0029195384        0.0018684425
  C        -0.0072612421       -0.0033157919       -0.0018482412
  C        -0.0131268244        0.0002329507       -0.0042428887
  C         0.0088942351        0.0021807200       -0.0007960357
  C         0.0002066208       -0.0075338938        0.0073060413
  C         0.0003308498       -0.0115691977        0.0023631567
  C        -0.0028617622       -0.0085193970       -0.0019254081
  C        -0.0055263229       -0.0082279943        0.0003068525
  C        -0.0009889436       -0.0000940913        0.0034041955
  C         0.0152524466       -0.0003055673        0.0005698555
  C         0.0071063827       -0.0004024901       -0.0031173899
  C         0.0019533929       -0.0178546101        0.0001493509
  C         0.0004402243       -0.0149906307        0.0001971272
  C         0.0038943104       -0.0018280853        0.0041986434
  C         0.0034362929        0.0046055688       -0.0069178127
  C         0.0007582332       -0.0013063772       -0.0095705877
  C        -0.0019447045       -0.0012131838       -0.0111988522
  C         0.0108485185       -0.0015642957       -0.0003888739
  C         0.0140965382       -0.0009098904       -0.0016866379
  C        -0.0030854869        0.0013664560       -0.0042871533
  C        -0.0064331152        0.0001662911       -0.0084951252
  C        -0.0015959953       -0.0034215035       -0.0095219385
  C         0.0006414245        0.0022096303        0.0093591758
  C         0.0005552620        0.0020421518       -0.0149227318
  C        -0.0021313638        0.0045801223        0.0089363453
  C         0.0004605676       -0.0004075806        0.0122683399
  C         0.0061411449        0.0046330451        0.0019704251
  C         0.0004807293        0.0117754543       -0.0005339733
  C        -0.0014058728        0.0159159892        0.0026445212
  C        -0.0034342305       -0.0046075935        0.0069139814
  C        -0.0007556406        0.0013058491        0.0095702960
  C         0.0019450042        0.0012119736        0.0111993566
  C        -0.0108485046        0.0015625715        0.0003892916
  C        -0.0140984507        0.0009091765        0.0016893399
  C         0.0030842110       -0.0013671524        0.0042843863
  C         0.0064349913       -0.0001661459        0.0084948942
  C         0.0015948518        0.0034205542        0.0095183092
  C        -0.0006417359       -0.0022099593       -0.0093617993
  C        -0.0005554987       -0.0020439552        0.0149222359
  C        -0.0045688564        0.0015239790       -0.0010010214
  C         0.0133658367        0.0029192417       -0.0018677329
  C         0.0072611747        0.0033163378        0.0018490777
  C         0.0131228211       -0.0002334733        0.0042403046
  C        -0.0088940259       -0.0021823296        0.0007970344
  C        -0.0002065616        0.0075319566       -0.0073025620
  C        -0.0003294277        0.0115708927       -0.0023634147
  C         0.0028638710        0.0085227375        0.0019263085
  C         0.0055265181        0.0082285176       -0.0003066446
  C         0.0009922357        0.0000972049       -0.0034061225
  C        -0.0152517636        0.0003043425       -0.0005699359
  C        -0.0071042467        0.0004012752        0.0031178326
  C        -0.0019546649        0.0178575335       -0.0001488699
  C        -0.0004419009        0.0149917122       -0.0001966337
  C        -0.0038983809        0.0018336722       -0.0041996217
      61
 i =        1, time =        1.000, E =      -347.9516624930
 Li        -0.0001424247        0.0000205482        0.0000621103
  C        -0.0100659072       -0.0023454254        0.0004889758
  C         0.0023840243       -0.0132131368        0.0078212194
  C        -0.0062388137       -0.0144065228       -0.0064043735
  C        -0.0088563958       -0.0076388534       -0.0082529134
  C        -0.0001881851        0.0035273886       -0.0156875272
  C         0.0013358735        0.0023961055       -0.0102181737
  C        -0.0127327316        0.0024003775        0.0020147938
  C        -0.0038493962       -0.0061697645       -0.0020651123
  C        -0.0149937122       -0.0063169933       -0.0000000485
  C         0.0083461645       -0.0060679315        0.0033707600
  C        -0.0031644867       -0.0100989471        0.0015907985
  C        -0.0012146653       -0.0114877098        0.0072912982
  C        -0.0020121418       -0.0076662356       -0.0103804136
  C        -0.0013488958       -0.0128626293        0.0015344641
  C        -0.0084904703        0.0031387638        0.0023459431
  C         0.0179172681        0.0066411615       -0.0008887718
  C         0.0073823452        0.0007844904       -0.0057349526
  C         0.0024999847       -0.0182083228        0.0050515721
  C         0.0037380888       -0.0161144947       -0.0016446810
  C         0.0028739955       -0.0074914391       -0.0048227998
  C         0.0109944636        0.0006418528       -0.0045586168
  C        -0.0142344819        0.0007856659       -0.0121199988
  C         0.0128381748        0.0041866658       -0.0089733824
  C         0.0130164152       -0.0041608819        0.0053478731
  C         0.0044017824       -0.0052687340       -0.0159585054
  C        -0.0046914208        0.0106920811       -0.0004961343
  C        -0.0077984390        0.0017250658       -0.0089486007
  C         0.0065276125       -0.0061610171       -0.0112092204
  C         0.0088200726        0.0016147923        0.0110723395
  C         0.0001776822       -0.0048163107       -0.0168968996
  C         0.0040227517        0.0031311348        0.0085022056
  C        -0.0078284870       -0.0036566494        0.0115069988
  C         0.0019379480        0.0096610353        0.0044712380
  C        -0.0088684901        0.0094466946        0.0067584433
  C         0.0105616258        0.0191116933        0.0030816887
  C         0.0038923867       -0.0061398110        0.0101578343
  C        -0.0040928553       -0.0081090440        0.0078886590
  C        -0.0000044335        0.0053284401        0.0108762988
  C        -0.0055022957        0.0025558581        0.0031363577
  C        -0.0143814990       -0.0004619858        0.0068406793
  C         0.0035364687        0.0050130919        0.0107493208
  C         0.0070477366       -0.0016420075        0.0085504282
  C        -0.0018737216        0.0039244481        0.0098917697
  C         0.0061914813        0.0059256466       -0.0096713731
  C         0.0001926846       -0.0010086184        0.0181077969
  C        -0.0026804605        0.0040869978        0.0145745330
  C         0.0101576346        0.0004876037       -0.0065289245
  C         0.0150342075       -0.0005562862       -0.0009682073
  C         0.0113144110        0.0013955027        0.0013851933
  C        -0.0092859184       -0.0041097116       -0.0011845806
  C        -0.0066266906        0.0123336501       -0.0069766777
  C        -0.0028769851        0.0073296767       -0.0066582388
  C         0.0038929611        0.0100538702       -0.0006367750
  C         0.0127882288        0.0065450714        0.0079900789
  C         0.0016017916        0.0028061076       -0.0038035222
  C        -0.0156708019        0.0046026834        0.0063724007
  C        -0.0121940338        0.0007772499       -0.0034279865
  C        -0.0033306106        0.0173421698       -0.0055480624
  C         0.0002206987        0.0174553741        0.0045495108
  C        -0.0001737112       -0.0020385931       -0.0121272416
      61
 i =        2, time =        2.000, E =      -347.9442559988
 Li        -0.0002759972        0.0000356693        0.0001215013
  C        -0.0138900186        0.0000904899        0.0029891771
  C         0.0051544875       -0.0143522580        0.0144494234
  C        -0.0137466557       -0.0127278848       -0.0100788787
  C        -0.0188735243       -0.0100516427       -0.0074558892
  C         0.0000297356        0.0063407986       -0.0185893483
  C        -0.0017587418        0.0063900286       -0.0209070077
  C        -0.0117446789        0.0073587220        0.0022879882
  C        -0.0002578386       -0.0090215138       -0.0023912998
  C        -0.0163689002       -0.0125311240        0.0037389250
  C         0.0078008647       -0.0141525496        0.0076496264
  C        -0.0061823432       -0.0124460950       -0.0039967868
  C        -0.0027659912       -0.0112303506        0.0122892822
  C        -0.0012082258       -0.0067416451       -0.0181944116
  C         0.0023740134       -0.0170731574        0.0024159059
  C        -0.0155088525        0.0061187089        0.0012185100
  C         0.0200930355        0.0130303316       -0.0023353521
  C         0.0074457799        0.0016002805       -0.0078945217
  C         0.0031152557       -0.0183145233        0.0096296110
  C         0.0069154711       -0.0170739166       -0.0035244523
  C         0.0016836588       -0.0123862046       -0.0129596771
  C         0.0179975735       -0.0031297161       -0.0020149689
  C        -0.0284400509        0.0026377817       -0.0143132095
  C         0.0264475255        0.0088280424       -0.0065869205
  C         0.0147724777       -0.0063398785        0.0104598710
  C        -0.0047005364       -0.0089621675       -0.0287257390
  C        -0.0062022778        0.0193422481        0.0032342375
  C        -0.0091092781        0.0029910865       -0.0092454195
  C         0.0140332583       -0.0084000036       -0.0124974935
  C         0.0165395001        0.0011892579        0.0125840356
  C        -0.0000809628       -0.0113774898       -0.0186042761
  C         0.0102944036        0.0018777706        0.0078132678
  C        -0.0161562408       -0.0066305887        0.0104827676
  C        -0.0015850727        0.0140050965        0.0066840918
  C        -0.0182932736        0.0070798951        0.0138135233
  C         0.0223043009        0.0219173019        0.0033587673
  C         0.0108868241       -0.0074276678        0.0129212934
  C        -0.0074368150       -0.0167207315        0.0060465476
  C        -0.0021247885        0.0087516240        0.0105298598
  C         0.0000111760        0.0033999789        0.0058135683
  C        -0.0145087647       -0.0018573278        0.0117520798
  C         0.0041514280        0.0106730404        0.0162730469
  C         0.0077211904       -0.0027749839        0.0085235757
  C        -0.0051658159        0.0041818701        0.0100481932
  C         0.0128915383        0.0135736913       -0.0098058128
  C         0.0007377170       -0.0000932758        0.0209179609
  C        -0.0011733750        0.0060849522        0.0285517861
  C         0.0070942232       -0.0021440240       -0.0109145772
  C         0.0219025694       -0.0038816799       -0.0032289122
  C         0.0093459379        0.0028844593       -0.0012057650
  C        -0.0095468917       -0.0054579280       -0.0031754129
  C        -0.0125498762        0.0169617469       -0.0064073146
  C        -0.0050022281        0.0029029249       -0.0111627879
  C         0.0049948569        0.0114882448       -0.0030041220
  C         0.0194314408        0.0049412081        0.0157577442
  C         0.0020583537        0.0052880204       -0.0040370116
  C        -0.0157865147        0.0087028373        0.0127778013
  C        -0.0169132468        0.0013229766       -0.0098322204
  C        -0.0045390962        0.0166346385       -0.0106991540
  C         0.0005124735        0.0196439327        0.0092964056
  C         0.0034394317       -0.0058550524       -0.0194742109
      61
 i =        3, time =        3.000, E =      -347.9339319436
 Li        -0.0003968169        0.0000511530        0.0001712302
  C        -0.0172792156        0.0024729171        0.0053554841
  C         0.0076208353       -0.0150634875        0.0198913549
  C        -0.0208408328       -0.0109502524       -0.0133934647
  C        -0.0274015424       -0.0116432781       -0.0066205266
  C         0.0000180312        0.0085817526       -0.0208231760
  C        -0.0046127859        0.0102570589       -0.0302787024
  C        -0.0102519438        0.0116467471        0.0026628217
  C         0.0032141503       -0.0117690034       -0.0026508382
  C        -0.0171260630       -0.0182504513        0.0067499784
  C         0.0072700511       -0.0214171910        0.0117313290
  C        -0.0087696344       -0.0142710322       -0.0092035922
  C        -0.0042511702       -0.0109487023        0.0170215799
  C        -0.0003572656       -0.0057971881       -0.0247443714
  C         0.0053616931       -0.0206360625        0.0028984598
  C        -0.0218895278        0.0084602808       -0.0001049663
  C         0.0216002910        0.0184716163       -0.0039105001
  C         0.0073842161        0.0019211883       -0.0093465662
  C         0.0036780739       -0.0181112610        0.0134648300
  C         0.0099025225       -0.0178884314       -0.0052066617
  C         0.0004183962       -0.0163198043       -0.0200357100
  C         0.0239371596       -0.0064394811        0.0003121587
  C        -0.0405824944        0.0040885521       -0.0158534319
  C         0.0384159380        0.0124274163       -0.0041615217
  C         0.0160610642       -0.0080218774        0.0146499477
  C        -0.0127957829       -0.0119565498       -0.0393380188
  C        -0.0074945370        0.0268150017        0.0063630283
  C        -0.0103702131        0.0039365020       -0.0092626499
  C         0.0208426566       -0.0098134886       -0.0134741878
  C         0.0229477292        0.0008746692        0.0137779461
  C        -0.0001506352       -0.0172083199       -0.0198420470
  C         0.0162534160        0.0007511449        0.0069078392
  C        -0.0241262083       -0.0092397275        0.0091387854
  C        -0.0043254728        0.0174996622        0.0087142467
  C        -0.0271706569        0.0047550448        0.0201502900
  C         0.0330202350        0.0242772667        0.0035137677
  C         0.0172365458       -0.0083705959        0.0151995781
  C        -0.0104372626       -0.0242957408        0.0041772249
  C        -0.0042402125        0.0114932172        0.0101293353
  C         0.0054888520        0.0040917876        0.0082521273
  C        -0.0145073872       -0.0031544019        0.0162556163
  C         0.0049622207        0.0153409576        0.0206591436
  C         0.0084610533       -0.0034348409        0.0083986313
  C        -0.0081392321        0.0042446793        0.0100180079
  C         0.0190136424        0.0205238001       -0.0097285957
  C         0.0010532918        0.0006414849        0.0232441931
  C        -0.0000555272        0.0074284817        0.0400574802
  C         0.0044065120       -0.0050661850       -0.0145193432
  C         0.0276320681       -0.0064137721       -0.0048859361
  C         0.0071999900        0.0041355497       -0.0034047430
  C        -0.0096084037       -0.0061092722       -0.0049284045
  C        -0.0179251270        0.0210648861       -0.0058820132
  C        -0.0066465982       -0.0014816575       -0.0155197751
  C         0.0060276443        0.0128286916       -0.0050064328
  C         0.0251155090        0.0036070952        0.0224785481
  C         0.0025741502        0.0075241092       -0.0039548018
  C        -0.0157403418        0.0122456593        0.0183047733
  C        -0.0211595046        0.0020681703       -0.0157448097
  C        -0.0054117548        0.0157709189       -0.0153330106
  C         0.0003692990        0.0214400830        0.0136830372
  C         0.0067922281       -0.0091239619       -0.0255648709
      61
 i =        4, time =        4.000, E =      -347.9238730067
 Li        -0.0004980230        0.0000617694        0.0002113661
  C        -0.0198611172        0.0045455513        0.0074312342
  C         0.0095769681       -0.0152068636        0.0236078099
  C        -0.0271632750       -0.0091518199       -0.0161080821
  C        -0.0339959269       -0.0123417631       -0.0057832946
  C        -0.0003572116        0.0100516296       -0.0222584577
  C        -0.0071081473        0.0136561520       -0.0375353267
  C        -0.0081427667        0.0149445853        0.0031439556
  C         0.0062899507       -0.0142180317       -0.0026403563
  C        -0.0171720726       -0.0232913784        0.0088208752
  C         0.0067654567       -0.0272131001        0.0151752188
  C        -0.0109240034       -0.0153234830       -0.0137408878
  C        -0.0055479433       -0.0107692743        0.0210908099
  C         0.0005892960       -0.0048861057       -0.0293826632
  C         0.0073288118       -0.0232643613        0.0028731142
  C        -0.0273469858        0.0098366858       -0.0016713632
  C         0.0222817461        0.0225729552       -0.0056888809
  C         0.0072280171        0.0016687308       -0.0098013969
  C         0.0040547741       -0.0175570751        0.0161797266
  C         0.0125293317       -0.0185615364       -0.0065219881
  C        -0.0007666352       -0.0190502884       -0.0258460447
  C         0.0283464111       -0.0089744097        0.0020751734
  C        -0.0494188681        0.0048905224       -0.0164451665
  C         0.0481783572        0.0147916778       -0.0018727514
  C         0.0168344647       -0.0091189368        0.0175955359
  C        -0.0194486735       -0.0142630239       -0.0472243930
  C        -0.0083617616        0.0325768569        0.0083518232
  C        -0.0115551067        0.0045090083       -0.0088954296
  C         0.0267524553       -0.0101681182       -0.0141648480
  C         0.0272011432        0.0006960015        0.0145341399
  C        -0.0000268762       -0.0218850828       -0.0204414318
  C         0.0213679287       -0.0002948654        0.0057973078
  C        -0.0311697098       -0.0113956302        0.0074970240
  C        -0.0062138060        0.0199394607        0.0105845839
  C        -0.0346856701        0.0026092483        0.0252158291
  C         0.0417646068        0.0260943697        0.0036558858
  C         0.0225416088       -0.0089416063        0.0168701058
  C        -0.0126612297       -0.0304768983        0.0024367434
  C        -0.0061633404        0.0135599733        0.0096878397
  C         0.0106327194        0.0045860438        0.0102783783
  C        -0.0143382086       -0.0042017945        0.0201807756
  C         0.0059108472        0.0187549672        0.0237640527
  C         0.0092277511       -0.0034888814        0.0081487174
  C        -0.0105726630        0.0042220787        0.0097971200
  C         0.0240554548        0.0264867778       -0.0094374638
  C         0.0012115996        0.0012024611        0.0249825290
  C         0.0006794890        0.0080603393        0.0484943286
  C         0.0022821532       -0.0082765164       -0.0169273219
  C         0.0319559892       -0.0079748703       -0.0058673040
  C         0.0048906486        0.0050358751       -0.0051031549
  C        -0.0094526206       -0.0059462220       -0.0062114063
  C        -0.0226149935        0.0242733154       -0.0056635837
  C        -0.0077943663       -0.0055299217       -0.0193130960
  C         0.0068538650        0.0139887817       -0.0064825445
  C         0.0294882967        0.0027405742        0.0277381110
  C         0.0032747946        0.0094799044       -0.0034678326
  C        -0.0156389132        0.0148868878        0.0225647011
  C        -0.0247247470        0.0030212528       -0.0207558353
  C        -0.0058107310        0.0148052569       -0.0191676582
  C        -0.0001576327        0.0227344405        0.0173111980
  C         0.0096831892       -0.0114007294       -0.0296863298
      61
 i =        5, time =        5.000, E =      -347.9144670904
 Li        -0.0005756250        0.0000766928        0.0002363475
  C        -0.0212607787        0.0059984898        0.0089855011
  C         0.0107786230       -0.0147283791        0.0251105369
  C        -0.0321781121       -0.0074836534       -0.0180009469
  C        -0.0381956395       -0.0121942640       -0.0050338920
  C        -0.0012017635        0.0106198124       -0.0228697565
  C        -0.0091461708        0.0161188889       -0.0418257030
  C        -0.0054801416        0.0169500091        0.0037115127
  C         0.0085758875       -0.0161707824       -0.0022018626
  C        -0.0165049068       -0.0273628976        0.0097640800
  C         0.0062590017       -0.0308646793        0.0174105632
  C        -0.0125939534       -0.0154803005       -0.0172335538
  C        -0.0065538840       -0.0107824112        0.0241203989
  C         0.0015799093       -0.0041200391       -0.0314909152
  C         0.0080384414       -0.0247536067        0.0022930610
  C        -0.0314896128        0.0099629226       -0.0034230985
  C         0.0220421898        0.0248759129       -0.0076392737
  C         0.0070724532        0.0008154079       -0.0091253736
  C         0.0041651115       -0.0167129264        0.0174316171
  C         0.0146017696       -0.0191295219       -0.0072812599
  C        -0.0017019488       -0.0203668580       -0.0300441303
  C         0.0307617048       -0.0103616321        0.0029156472
  C        -0.0537240977        0.0047843037       -0.0158904830
  C         0.0550000884        0.0157936487       -0.0000126304
  C         0.0170891754       -0.0095757797        0.0190096295
  C        -0.0240845091       -0.0159031508       -0.0518228641
  C        -0.0086540870        0.0361149972        0.0087172258
  C        -0.0126302687        0.0046525500       -0.0081518067
  C         0.0313729922       -0.0093748350       -0.0146056032
  C         0.0286059831        0.0006994398        0.0146848400
  C         0.0002204901       -0.0249364560       -0.0203317933
  C         0.0249809161       -0.0011414331        0.0045636659
  C        -0.0364698383       -0.0130205718        0.0056695476
  C        -0.0071416319        0.0211722980        0.0122811422
  C        -0.0398124477        0.0008364900        0.0284174277
  C         0.0474038127        0.0272825869        0.0039925757
  C         0.0262943041       -0.0091573003        0.0178119412
  C        -0.0137041111       -0.0347997043        0.0010785318
  C        -0.0076971420        0.0149157335        0.0092785401
  C         0.0149610383        0.0048328359        0.0116615969
  C        -0.0140196734       -0.0048381806        0.0233354298
  C         0.0069099763        0.0206378087        0.0254623038
  C         0.0099872587       -0.0028470814        0.0078213071
  C        -0.0121679342        0.0042215340        0.0093962303
  C         0.0274874336        0.0309751160       -0.0088876134
  C         0.0012848978        0.0016122610        0.0260744572
  C         0.0010998641        0.0079864282        0.0532741716
  C         0.0009332057       -0.0116076255       -0.0177691862
  C         0.0346261596       -0.0083770578       -0.0061045362
  C         0.0025434258        0.0055060478       -0.0061430408
  C        -0.0090183152       -0.0049707017       -0.0067602485
  C        -0.0263503667        0.0262656208       -0.0060304637
  C        -0.0084172995       -0.0088462805       -0.0220767857
  C         0.0073974293        0.0149454960       -0.0073083065
  C         0.0321893917        0.0025297020        0.0310930825
  C         0.0042462541        0.0110815515       -0.0025672836
  C        -0.0156093650        0.0163451836        0.0251395919
  C        -0.0273383703        0.0042119827       -0.0243745815
  C        -0.0057034203        0.0138408603       -0.0218675651
  C        -0.0010039670        0.0234523917        0.0197478494
  C         0.0118387436       -0.0122888459       -0.0312323574
      61
 i =        6, time =        6.000, E =      -347.9094742573
 Li        -0.0006258260        0.0000908601        0.0002547306
  C        -0.0213635476        0.0067817008        0.0100498216
  C         0.0111540657       -0.0135291735        0.0243324795
  C        -0.0359643175       -0.0058149542       -0.0191255157
  C        -0.0401743976       -0.0112367095       -0.0043241689
  C        -0.0026131751        0.0103249472       -0.0226835526
  C        -0.0107739188        0.0175416379       -0.0430331873
  C        -0.0020954339        0.0177037572        0.0044118148
  C         0.0100707637       -0.0176178226       -0.0011922469
  C        -0.0150864327       -0.0306480747        0.0095689679
  C         0.0057178299       -0.0323470083        0.0183059268
  C        -0.0139530971       -0.0146465847       -0.0197622482
  C        -0.0072294282       -0.0110807467        0.0260749724
  C         0.0026860069       -0.0034688684       -0.0309718515
  C         0.0074419074       -0.0250836407        0.0010380819
  C        -0.0344154996        0.0088404529       -0.0054453699
  C         0.0207884202        0.0254141677       -0.0098894549
  C         0.0068813198       -0.0006706559       -0.0072626177
  C         0.0039689509       -0.0154697925        0.0171804709
  C         0.0161421474       -0.0196530759       -0.0074865820
  C        -0.0023218996       -0.0202388485       -0.0328014684
  C         0.0311235077       -0.0104947380        0.0027684644
  C        -0.0533569117        0.0036766470       -0.0140204006
  C         0.0590169918        0.0155049517        0.0013959765
  C         0.0168672139       -0.0094487078        0.0190052171
  C        -0.0267874405       -0.0170352348       -0.0532460352
  C        -0.0083245950        0.0374640093        0.0073221987
  C        -0.0136202145        0.0043366207       -0.0069532164
  C         0.0348157557       -0.0073950721       -0.0148050122
  C         0.0270475133        0.0009292049        0.0141797586
  C         0.0005894610       -0.0264170731       -0.0194526761
  C         0.0269104529       -0.0018301909        0.0030845098
  C        -0.0399638352       -0.0142867138        0.0035231484
  C        -0.0071862570        0.0212198101        0.0139135541
  C        -0.0422747028       -0.0006177725        0.0296154374
  C         0.0496988561        0.0278557549        0.0046965339
  C         0.0285455327       -0.0091401134        0.0179634418
  C        -0.0133501648       -0.0373382014        0.0001327786
  C        -0.0087600134        0.0156810807        0.0089088097
  C         0.0185565422        0.0047944229        0.0123508799
  C        -0.0135033017       -0.0049966297        0.0258369870
  C         0.0079446337        0.0210551741        0.0258401358
  C         0.0107449423       -0.0014564008        0.0073915930
  C        -0.0128618145        0.0044218727        0.0087553299
  C         0.0292374843        0.0340434002       -0.0080466635
  C         0.0013702482        0.0019638542        0.0265669350
  C         0.0012533906        0.0072278661        0.0545554271
  C         0.0003043218       -0.0152334380       -0.0169774859
  C         0.0356958554       -0.0076188492       -0.0055938865
  C         0.0000199504        0.0055395804       -0.0065512320
  C        -0.0082948210       -0.0031978993       -0.0064849615
  C        -0.0293010548        0.0270231461       -0.0071487012
  C        -0.0085941342       -0.0115251557       -0.0237277870
  C         0.0076224894        0.0156765355       -0.0074660678
  C         0.0332914510        0.0030453170        0.0326870026
  C         0.0055968652        0.0123563425       -0.0012016735
  C        -0.0157015165        0.0165612351        0.0260044808
  C        -0.0290338999        0.0057110888       -0.0266291610
  C        -0.0050561339        0.0128328121       -0.0234564131
  C        -0.0021340243        0.0235810735        0.0209255328
  C         0.0133541023       -0.0116984993       -0.0300756096
      61
 i =        7, time =        7.000, E =      -347.9088620700
 Li        -0.0006458882        0.0001049839        0.0002640939
  C        -0.0200327618        0.0067788380        0.0105722923
  C         0.0105472632       -0.0115669190        0.0212742985
  C        -0.0382810192       -0.0041039642       -0.0194535251
  C        -0.0398270339       -0.0095010690       -0.0036673836
  C        -0.0046176919        0.0092509154       -0.0217453668
  C        -0.0119383389        0.0177413652       -0.0409335580
  C         0.0019779198        0.0171898341        0.0052446574
  C         0.0106673817       -0.0184823736        0.0004637868
  C        -0.0129402518       -0.0330617598        0.0082234445
  C         0.0051369629       -0.0315268827        0.0176584390
  C        -0.0150027479       -0.0128053215       -0.0212303327
  C        -0.0075327244       -0.0116757011        0.0268424043
  C         0.0038946301       -0.0029506359       -0.0277671835
  C         0.0055090521       -0.0242241542       -0.0009320183
  C        -0.0360348381        0.0064975427       -0.0076949631
  C         0.0185087723        0.0241738992       -0.0123858224
  C         0.0066630526       -0.0027291588       -0.0043072194
  C         0.0034053683       -0.0138510934        0.0153775884
  C         0.0170707439       -0.0201595171       -0.0071412210
  C        -0.0025862190       -0.0185689716       -0.0339704710
  C         0.0293179981       -0.0092517725        0.0015863200
  C        -0.0482363854        0.0015554615       -0.0107807732
  C         0.0599578912        0.0139362562        0.0022210461
  C         0.0162175721       -0.0087877315        0.0176325999