 DBCSR| CPU Multiplication driver                                            SMM
 DBCSR| Multrec recursion limit                                              512
 DBCSR| Multiplication stack size                                           1000
 DBCSR| Maximum elements for images                                    UNLIMITED
 DBCSR| Multiplicative factor virtual images                                   1
 DBCSR| Use multiplication densification                                       T
 DBCSR| Multiplication size stacks                                             3
 DBCSR| Use memory pool for CPU allocation                                     F
 DBCSR| Number of 3D layers                                               SINGLE
 DBCSR| Use MPI memory allocation                                              F
 DBCSR| Use RMA algorithm                                                      F
 DBCSR| Use Communication thread                                               T
 DBCSR| Communication thread load                                             87
 DBCSR| MPI: My node id                                                        0
 DBCSR| MPI: Number of nodes                                                  25
 DBCSR| OMP: Current number of threads                                         1
 DBCSR| OMP: Max number of threads                                             1
 DBCSR| Split modifier for TAS multiplication algorithm                  1.0E+00


  **** **** ******  **  PROGRAM STARTED AT               2021-11-25 20:12:14.168
 ***** ** ***  *** **   PROGRAM STARTED ON                                  hpc5
 **    ****   ******    PROGRAM STARTED BY                              97425008
 ***** **    ** ** **   PROGRAM PROCESS ID                                 75811
  **** **  *******  **  PROGRAM STARTED IN       /home/97425008/mohamed/step1_MD

 CP2K| version string:                    CP2K version 8.0 (Development Version)
 CP2K| source code revision number:                                  git:14d32d5
 CP2K| cp2kflags: omp libint fftw3 libxc pexsi parallel mpi3 scalapack quip smm_
 CP2K|            dnn smm spglib
 CP2K| is freely available from                            https://www.cp2k.org/
 CP2K| Program compiled at                        Mon Oct 11 11:29:30 +0330 2021
 CP2K| Program compiled on                                           HPC-BAHONAR
 CP2K| Program compiled for                                                local
 CP2K| Data directory path                      /home/97425008/cp2k-v7/cp2k/data
 CP2K| Input file name                                                    md.inp

 GLOBAL| Force Environment number                                              1
 GLOBAL| Basis set file name                                        BASIS_MOLOPT
 GLOBAL| Potential file name                                      GTH_POTENTIALS
 GLOBAL| MM Potential file name                                     MM_POTENTIAL
 GLOBAL| Coordinate file name                                            lic.xyz
 GLOBAL| Method name                                                        CP2K
 GLOBAL| Project name                                                    lic-pbe
 GLOBAL| Preferred FFT library                                             FFTW3
 GLOBAL| Preferred diagonalization lib.                                       SL
 GLOBAL| Run type                                                             MD
 GLOBAL| All-to-all communication in single precision                          F
 GLOBAL| FFTs using library dependent lengths                                  F
 GLOBAL| Global print level                                               MEDIUM
 GLOBAL| MPI I/O enabled                                                       T
 GLOBAL| Total number of message passing processes                            25
 GLOBAL| Number of threads for this process                                    1
 GLOBAL| This output is from process                                           0
 GLOBAL| CPU model name                Intel(R) Xeon(R) CPU E5-2699 v4 @ 2.20GHz

 MEMORY| system memory details [Kb]
 MEMORY|                        rank 0           min           max       average
 MEMORY| MemTotal            132036248     132036248     132036248     132036248
 MEMORY| MemFree              55090088      55090088      55090088      55090088
 MEMORY| Buffers                176340        176340        176340        176340
 MEMORY| Cached               61083216      61083216      61083216      61083216
 MEMORY| Slab                   625692        625692        625692        625692
 MEMORY| SReclaimable           413820        413820        413820        413820
 MEMORY| MemLikelyFree       116763464     116763464     116763464     116763464


 *** Fundamental physical constants (SI units) ***

 *** Literature: B. J. Mohr and B. N. Taylor,
 ***             CODATA recommended values of the fundamental physical
 ***             constants: 2006, Web Version 5.1
 ***             http://physics.nist.gov/constants

 Speed of light in vacuum [m/s]                             2.99792458000000E+08
 Magnetic constant or permeability of vacuum [N/A**2]       1.25663706143592E-06
 Electric constant or permittivity of vacuum [F/m]          8.85418781762039E-12
 Planck constant (h) [J*s]                                  6.62606896000000E-34
 Planck constant (h-bar) [J*s]                              1.05457162825177E-34
 Elementary charge [C]                                      1.60217648700000E-19
 Electron mass [kg]                                         9.10938215000000E-31
 Electron g factor [ ]                                     -2.00231930436220E+00
 Proton mass [kg]                                           1.67262163700000E-27
 Fine-structure constant                                    7.29735253760000E-03
 Rydberg constant [1/m]                                     1.09737315685270E+07
 Avogadro constant [1/mol]                                  6.02214179000000E+23
 Boltzmann constant [J/K]                                   1.38065040000000E-23
 Atomic mass unit [kg]                                      1.66053878200000E-27
 Bohr radius [m]                                            5.29177208590000E-11

 *** Conversion factors ***

 [u] -> [a.u.]                                              1.82288848426455E+03
 [Angstrom] -> [Bohr] = [a.u.]                              1.88972613288564E+00
 [a.u.] = [Bohr] -> [Angstrom]                              5.29177208590000E-01
 [a.u.] -> [s]                                              2.41888432650478E-17
 [a.u.] -> [fs]                                             2.41888432650478E-02
 [a.u.] -> [J]                                              4.35974393937059E-18
 [a.u.] -> [N]                                              8.23872205491840E-08
 [a.u.] -> [K]                                              3.15774647902944E+05
 [a.u.] -> [kJ/mol]                                         2.62549961709828E+03
 [a.u.] -> [kcal/mol]                                       6.27509468713739E+02
 [a.u.] -> [Pa]                                             2.94210107994716E+13
 [a.u.] -> [bar]                                            2.94210107994716E+08
 [a.u.] -> [atm]                                            2.90362800883016E+08
 [a.u.] -> [eV]                                             2.72113838565563E+01
 [a.u.] -> [Hz]                                             6.57968392072181E+15
 [a.u.] -> [1/cm] (wave numbers)                            2.19474631370540E+05
 [a.u./Bohr**2] -> [1/cm]                                   5.14048714338585E+03
 

 CELL_TOP| Volume [angstrom^3]:                                      3375.000000
 CELL_TOP| Vector a [angstrom    15.000     0.000     0.000   |a| =    15.000000
 CELL_TOP| Vector b [angstrom     0.000    15.000     0.000   |b| =    15.000000
 CELL_TOP| Vector c [angstrom     0.000     0.000    15.000   |c| =    15.000000
 CELL_TOP| Angle (b,c), alpha [degree]:                                90.000000
 CELL_TOP| Angle (a,c), beta  [degree]:                                90.000000
 CELL_TOP| Angle (a,b), gamma [degree]:                                90.000000
 CELL_TOP| Numerically orthorhombic:                                         YES

 GENERATE|  Preliminary Number of Bonds generated:                             0
 GENERATE|  Achieved consistency in connectivity generation.

 CELL| Volume [angstrom^3]:                                          3375.000000
 CELL| Vector a [angstrom]:      15.000     0.000     0.000   |a| =    15.000000
 CELL| Vector b [angstrom]:       0.000    15.000     0.000   |b| =    15.000000
 CELL| Vector c [angstrom]:       0.000     0.000    15.000   |c| =    15.000000
 CELL| Angle (b,c), alpha [degree]:                                    90.000000
 CELL| Angle (a,c), beta  [degree]:                                    90.000000
 CELL| Angle (a,b), gamma [degree]:                                    90.000000
 CELL| Numerically orthorhombic:                                             YES

 CELL_REF| Volume [angstrom^3]:                                      3375.000000
 CELL_REF| Vector a [angstrom    15.000     0.000     0.000   |a| =    15.000000
 CELL_REF| Vector b [angstrom     0.000    15.000     0.000   |b| =    15.000000
 CELL_REF| Vector c [angstrom     0.000     0.000    15.000   |c| =    15.000000
 CELL_REF| Angle (b,c), alpha [degree]:                                90.000000
 CELL_REF| Angle (a,c), beta  [degree]:                                90.000000
 CELL_REF| Angle (a,b), gamma [degree]:                                90.000000
 CELL_REF| Numerically orthorhombic:                                         YES

 *******************************************************************************
 *******************************************************************************
 **                                                                           **
 **     #####                         ##              ##                      **
 **    ##   ##            ##          ##              ##                      **
 **   ##     ##                       ##            ######                    **
 **   ##     ##  ##   ##  ##   #####  ##  ##   ####   ##    #####    #####    **
 **   ##     ##  ##   ##  ##  ##      ## ##   ##      ##   ##   ##  ##   ##   **
 **   ##  ## ##  ##   ##  ##  ##      ####     ###    ##   ######   ######    **
 **    ##  ###   ##   ##  ##  ##      ## ##      ##   ##   ##       ##        **
 **     #######   #####   ##   #####  ##  ##  ####    ##    #####   ##        **
 **           ##                                                    ##        **
 **                                                                           **
 **                                                ... make the atoms dance   **
 **                                                                           **
 **            Copyright (C) by CP2K developers group (2000 - 2020)           **
 **                      J. Chem. Phys. 152, 194103 (2020)                    **
 **                                                                           **
 *******************************************************************************

 DFT| Spin unrestricted (spin-polarized) Kohn-Sham calculation               UKS
 DFT| Multiplicity                                                             2
 DFT| Number of spin states                                                    2
 DFT| Charge                                                                   0
 DFT| Self-interaction correction (SIC)                                       NO
 DFT| Cutoffs: density                                              1.000000E-10
 DFT|          gradient                                             1.000000E-10
 DFT|          tau                                                  1.000000E-10
 DFT|          cutoff_smoothing_range                               0.000000E+00
 DFT| XC density smoothing                                                  NONE
 DFT| XC derivatives                                              SPLINE2_SMOOTH
 FUNCTIONAL| ROUTINE=NEW
 FUNCTIONAL| PBE:
 FUNCTIONAL| J.P.Perdew, K.Burke, M.Ernzerhof, Phys. Rev. Letter, vol. 77, n 18,
 FUNCTIONAL|  pp. 3865-3868, (1996){spin polarized}                             
 vdW POTENTIAL|                                                   Pair Potential
 vdW POTENTIAL|          DFT-D3 (Version 3.1)
 vdW POTENTIAL|          Potential Form: S. Grimme et al, JCP 132: 154104 (2010)
 vdW POTENTIAL|          Zero Damping
 vdW POTENTIAL|          Cutoff Radius [Bohr]:                             30.24
 vdW POTENTIAL|          s6 Scaling Factor:                               1.0000
 vdW POTENTIAL|          sr6 Scaling Factor:                              1.2170
 vdW POTENTIAL|          s8 Scaling Factor:                               0.7220
 vdW POTENTIAL|          Cutoff for CN calculation:                   0.1000E-05

 QS| Method:                                                                 GPW
 QS| Density plane wave grid type                        NON-SPHERICAL FULLSPACE
 QS| Number of grid levels:                                                   16
 QS| Density cutoff [a.u.]:                                                150.0
 QS| Multi grid cutoff [a.u.]: 1) grid level                               150.0
 QS|                           2) grid level                                50.0
 QS|                           3) grid level                                16.7
 QS|                           4) grid level                                 5.6
 QS|                           5) grid level                                 1.9
 QS|                           6) grid level                                 0.6
 QS|                           7) grid level                                 0.2
 QS|                           8) grid level                                 0.1
 QS|                           9) grid level                                 0.0
 QS|                          10) grid level                                 0.0
 QS|                          11) grid level                                 0.0
 QS|                          12) grid level                                 0.0
 QS|                          13) grid level                                 0.0
 QS|                          14) grid level                                 0.0
 QS|                          15) grid level                                 0.0
 QS|                          16) grid level                                 0.0
 QS| Grid level progression factor:                                          3.0
 QS| Relative density cutoff [a.u.]:                                        25.0
 QS| Interaction thresholds: eps_pgf_orb:                                1.0E-07
 QS|                         eps_filter_matrix:                          0.0E+00
 QS|                         eps_core_charge:                            1.0E-16
 QS|                         eps_rho_gspace:                             1.0E-14
 QS|                         eps_rho_rspace:                             1.0E-14
 QS|                         eps_gvg_rspace:                             1.0E-07
 QS|                         eps_ppl:                                    1.0E-02
 QS|                         eps_ppnl:                                   1.0E-09


 ATOMIC KIND INFORMATION

  1. Atomic kind: Li                                    Number of atoms:       1

     Orbital Basis Set                                        DZVP-MOLOPT-SR-GTH

       Number of orbital shell sets:                                           1
       Number of orbital shells:                                               4
       Number of primitive Cartesian functions:                                5
       Number of Cartesian basis functions:                                    6
       Number of spherical basis functions:                                    6
       Norm type:                                                              2

       Normalised Cartesian orbitals:

                        Set   Shell   Orbital            Exponent    Coefficient

                          1       1    2s                7.133128       0.845417
                                                         1.999997       0.491024
                                                         0.612031       0.147779
                                                         0.084367       0.023020
                                                         0.032613       0.006029

                          1       2    3s                7.133128       0.356560
                                                         1.999997       0.274758
                                                         0.612031       0.123518
                                                         0.084367      -0.073250
                                                         0.032613      -0.022874

                          1       3    4s                7.133128      -0.506239
                                                         1.999997      -0.114387
                                                         0.612031      -0.015464
                                                         0.084367      -0.188013
                                                         0.032613       0.089984

                          1       4    3px               7.133128      -0.353696
                                                         1.999997      -0.012401
                                                         0.612031      -0.242249
                                                         0.084367      -0.056703
                                                         0.032613       0.000856
                          1       4    3py               7.133128      -0.353696
                                                         1.999997      -0.012401
                                                         0.612031      -0.242249
                                                         0.084367      -0.056703
                                                         0.032613       0.000856
                          1       4    3pz               7.133128      -0.353696
                                                         1.999997      -0.012401
                                                         0.612031      -0.242249
                                                         0.084367      -0.056703
                                                         0.032613       0.000856

     GTH Potential information for                                    GTH-PBE-q3

       Description:                       Goedecker-Teter-Hutter pseudopotential
                                           Goedecker et al., PRB 54, 1703 (1996)
                                          Hartwigsen et al., PRB 58, 3641 (1998)
                                                      Krack, TCA 114, 145 (2005)

       Gaussian exponent of the core charge distribution:               3.125000
       Electronic configuration (s p d ...):                                   3

       Parameters of the local part of the GTH pseudopotential:

                          rloc        C1          C2          C3          C4
                        0.400000  -14.081155    9.626220   -1.783616    0.085152

  2. Atomic kind: C                                     Number of atoms:      60

     Orbital Basis Set                                           DZVP-MOLOPT-GTH

       Number of orbital shell sets:                                           1
       Number of orbital shells:                                               5
       Number of primitive Cartesian functions:                                7
       Number of Cartesian basis functions:                                   14
       Number of spherical basis functions:                                   13
       Norm type:                                                              2

       Normalised Cartesian orbitals:

                        Set   Shell   Orbital            Exponent    Coefficient

                          1       1    2s                6.132625      -0.263661
                                                         2.625196      -0.231112
                                                         1.045457       0.042712
                                                         0.478316       0.306085
                                                         0.178617       0.065483
                                                         0.075145       0.000568
                                                         0.030287       0.000417

                          1       2    3s                6.132625       0.131937
                                                         2.625196       0.414269
                                                         1.045457      -0.593590
                                                         0.478316       0.644922
                                                         0.178617       0.069203
                                                         0.075145      -0.145101
                                                         0.030287       0.008247

                          1       3    3px               6.132625       0.562677
                                                         2.625196       0.633910
                                                         1.045457       0.379157
                                                         0.478316       0.235193
                                                         0.178617       0.052379
                                                         0.075145       0.003677
                                                         0.030287       0.000105
                          1       3    3py               6.132625       0.562677
                                                         2.625196       0.633910
                                                         1.045457       0.379157
                                                         0.478316       0.235193
                                                         0.178617       0.052379
                                                         0.075145       0.003677
                                                         0.030287       0.000105
                          1       3    3pz               6.132625       0.562677
                                                         2.625196       0.633910
                                                         1.045457       0.379157
                                                         0.478316       0.235193
                                                         0.178617       0.052379
                                                         0.075145       0.003677
                                                         0.030287       0.000105

                          1       4    4px               6.132625      -0.472364
                                                         2.625196      -0.221326
                                                         1.045457      -0.481781
                                                         0.478316       0.135466
                                                         0.178617       0.072281
                                                         0.075145       0.024920
                                                         0.030287       0.002706
                          1       4    4py               6.132625      -0.472364
                                                         2.625196      -0.221326
                                                         1.045457      -0.481781
                                                         0.478316       0.135466
                                                         0.178617       0.072281
                                                         0.075145       0.024920
                                                         0.030287       0.002706
                          1       4    4pz               6.132625      -0.472364
                                                         2.625196      -0.221326
                                                         1.045457      -0.481781
                                                         0.478316       0.135466
                                                         0.178617       0.072281
                                                         0.075145       0.024920
                                                         0.030287       0.002706

                          1       5    4dx2              6.132625       0.874783
                                                         2.625196       0.375772
                                                         1.045457       0.653959
                                                         0.478316       0.191007
                                                         0.178617       0.018656
                                                         0.075145       0.003649
                                                         0.030287      -0.000011
                          1       5    4dxy              6.132625       1.515169
                                                         2.625196       0.650856
                                                         1.045457       1.132690
                                                         0.478316       0.330834
                                                         0.178617       0.032314
                                                         0.075145       0.006321
                                                         0.030287      -0.000019
                          1       5    4dxz              6.132625       1.515169
                                                         2.625196       0.650856
                                                         1.045457       1.132690
                                                         0.478316       0.330834
                                                         0.178617       0.032314
                                                         0.075145       0.006321
                                                         0.030287      -0.000019
                          1       5    4dy2              6.132625       0.874783
                                                         2.625196       0.375772
                                                         1.045457       0.653959
                                                         0.478316       0.191007
                                                         0.178617       0.018656
                                                         0.075145       0.003649
                                                         0.030287      -0.000011
                          1       5    4dyz              6.132625       1.515169
                                                         2.625196       0.650856
                                                         1.045457       1.132690
                                                         0.478316       0.330834
                                                         0.178617       0.032314
                                                         0.075145       0.006321
                                                         0.030287      -0.000019
                          1       5    4dz2              6.132625       0.874783
                                                         2.625196       0.375772
                                                         1.045457       0.653959
                                                         0.478316       0.191007
                                                         0.178617       0.018656
                                                         0.075145       0.003649
                                                         0.030287      -0.000011

     GTH Potential information for                                    GTH-PBE-q4

       Description:                       Goedecker-Teter-Hutter pseudopotential
                                           Goedecker et al., PRB 54, 1703 (1996)
                                          Hartwigsen et al., PRB 58, 3641 (1998)
                                                      Krack, TCA 114, 145 (2005)

       Gaussian exponent of the core charge distribution:               4.364419
       Electronic configuration (s p d ...):                               2   2

       Parameters of the local part of the GTH pseudopotential:

                          rloc        C1          C2          C3          C4
                        0.338471   -8.803674    1.339211

       Parameters of the non-local part of the GTH pseudopotential:

                   l      r(l)      h(i,j,l)

                   0    0.302576    9.622487
                   1    0.291507


 MOLECULE KIND INFORMATION


 All atoms are their own molecule, skipping detailed information


 TOTAL NUMBERS AND MAXIMUM NUMBERS

  Total number of            - Atomic kinds:                                   2
                             - Atoms:                                         61
                             - Shell sets:                                    61
                             - Shells:                                       304
                             - Primitive Cartesian functions:                425
                             - Cartesian basis functions:                    846
                             - Spherical basis functions:                    786

  Maximum angular momentum of- Orbital basis functions:                        2
                             - Local part of the GTH pseudopotential:          6
                             - Non-local part of the GTH pseudopotential:      0


 MODULE QUICKSTEP:  ATOMIC COORDINATES IN angstrom

  Atom  Kind  Element       X           Y           Z          Z(eff)       Mass

       1     1 Li   3    7.500014    7.500007    7.500002      3.0000       6.9410
       2     2 C    6    9.207782   10.017480    9.374566      4.0000      12.0107
       3     2 C    6    8.329599   10.817486    8.529586      4.0000      12.0107
       4     2 C    6    6.972220   10.682448    9.034647      4.0000      12.0107
       5     2 C    6    7.007588    9.801277   10.185489      4.0000      12.0107
       6     2 C    6    8.385630    9.386218   10.398452      4.0000      12.0107
       7     2 C    6   10.974810    8.076323    6.925925      4.0000      12.0107
       8     2 C    6   10.518154    9.385363    7.370192      4.0000      12.0107
       9     2 C    6   10.277597    9.318256    8.806220      4.0000      12.0107
      10     2 C    6   10.576336    7.959149    9.240079      4.0000      12.0107
      11     2 C    6   11.010126    7.197930    8.074727      4.0000      12.0107
      12     2 C    6    7.869939   10.057837    5.043629      4.0000      12.0107
      13     2 C    6    7.444586   10.807391    6.213742      4.0000      12.0107
      14     2 C    6    8.563199   10.882211    7.149883      4.0000      12.0107
      15     2 C    6    9.674190   10.153814    6.560411      4.0000      12.0107
      16     2 C    6    9.239927    9.645675    5.260603      4.0000      12.0107
      17     2 C    6    4.376796    9.151177    7.053751      4.0000      12.0107
      18     2 C    6    4.823557    9.652938    8.348876      4.0000      12.0107
      19     2 C    6    5.896115   10.613926    8.130135      4.0000      12.0107
      20     2 C    6    6.139296   10.674433    6.701365      4.0000      12.0107
      21     2 C    6    5.196489    9.773493    6.037262      4.0000      12.0107
      22     2 C    6    5.322366    6.619651   10.163518      4.0000      12.0107
      23     2 C    6    6.264944    7.523871   10.824618      4.0000      12.0107
      24     2 C    6    5.969578    8.876292   10.392654      4.0000      12.0107
      25     2 C    6    4.850900    8.807006    9.461387      4.0000      12.0107
      26     2 C    6    4.447424    7.412420    9.328281      4.0000      12.0107
      27     2 C    6    9.388766    5.955839   10.089130      4.0000      12.0107
      28     2 C    6    9.787151    7.355609   10.224671      4.0000      12.0107
      29     2 C    6    8.673963    8.081049   10.815365      4.0000      12.0107
      30     2 C    6    7.590947    7.125503   11.032325      4.0000      12.0107
      31     2 C    6    8.040961    5.815100   10.595530      4.0000      12.0107
      32     2 C    6    7.992412    5.198723    4.814486      4.0000      12.0107
      33     2 C    6    6.614369    5.613788    4.601527      4.0000      12.0107
      34     2 C    6    5.792221    4.982538    5.625425      4.0000      12.0107
      35     2 C    6    6.670402    4.182533    6.470407      4.0000      12.0107
      36     2 C    6    8.027779    4.317559    5.965337      4.0000      12.0107
      37     2 C    6    9.677627    8.380360    4.836482      4.0000      12.0107
      38     2 C    6    8.735049    7.476141    4.175377      4.0000      12.0107
      39     2 C    6    9.030419    6.123719    4.607333      4.0000      12.0107
      40     2 C    6   10.149097    6.193009    5.538602      4.0000      12.0107
      41     2 C    6   10.552586    7.587594    5.671703      4.0000      12.0107
      42     2 C    6    5.611236    9.044170    4.910865      4.0000      12.0107
      43     2 C    6    5.212849    7.644401    4.775323      4.0000      12.0107
      44     2 C    6    6.326038    6.918963    4.184636      4.0000      12.0107
      45     2 C    6    7.409050    7.874511    3.967675      4.0000      12.0107
      46     2 C    6    6.959035    9.184918    4.404457      4.0000      12.0107
      47     2 C    6    4.025212    6.923692    8.074060      4.0000      12.0107
      48     2 C    6    4.481846    5.614646    7.629797      4.0000      12.0107
      49     2 C    6    4.722406    5.681756    6.193771      4.0000      12.0107
      50     2 C    6    4.423674    7.040864    5.759920      4.0000      12.0107
      51     2 C    6    3.989874    7.802084    6.925263      4.0000      12.0107
      52     2 C    6    7.130057    4.942186    9.956349      4.0000      12.0107
      53     2 C    6    7.555411    4.192617    8.786245      4.0000      12.0107
      54     2 C    6    6.436793    4.117789    7.850108      4.0000      12.0107
      55     2 C    6    5.325803    4.846191    8.439581      4.0000      12.0107
      56     2 C    6    5.760061    5.354331    9.739392      4.0000      12.0107
      57     2 C    6   10.623195    5.848839    7.946241      4.0000      12.0107
      58     2 C    6   10.176432    5.347079    6.651115      4.0000      12.0107
      59     2 C    6    9.103886    4.386076    6.869852      4.0000      12.0107
      60     2 C    6    8.860706    4.325569    8.298625      4.0000      12.0107
      61     2 C    6    9.803519    5.226505    8.962735      4.0000      12.0107




 SCF PARAMETERS         Density guess:                                    ATOMIC
                        --------------------------------------------------------
                        max_scf:                                              50
                        max_scf_history:                                       0
                        max_diis:                                              4
                        --------------------------------------------------------
                        eps_scf:                                        1.00E-06
                        eps_scf_history:                                0.00E+00
                        eps_diis:                                       1.00E-01
                        eps_eigval:                                     1.00E-05
                        --------------------------------------------------------
                        level_shift [a.u.]:                                 0.00
                        added MOs                                        50   50
                        --------------------------------------------------------
                        Mixing method:                            BROYDEN_MIXING
                                                charge density mixing in g-space
                        --------------------------------------------------------
                        No outer SCF

 PW_GRID| Information for grid number                                          1
 PW_GRID| Grid distributed over                                    25 processors
 PW_GRID| Real space group dimensions                                    25    1
 PW_GRID| the grid is blocked:                                                NO
 PW_GRID| Cutoff [a.u.]                                                    300.0
 PW_GRID| spherical cutoff:                                                   NO
 PW_GRID|   Bounds   1           -112     112                Points:         225
 PW_GRID|   Bounds   2           -112     112                Points:         225
 PW_GRID|   Bounds   3           -112     112                Points:         225
 PW_GRID| Volume element (a.u.^3)  0.2000E-02     Volume (a.u.^3)     22775.6292
 PW_GRID| Grid span                                                    FULLSPACE
 PW_GRID|   Distribution                         Average         Max         Min
 PW_GRID|   G-Vectors                           455625.0      455625      455625
 PW_GRID|   G-Rays                                2025.0        2025        2025
 PW_GRID|   Real Space Points                   455625.0      455625      455625

 PW_GRID| Information for grid number                                          2
 PW_GRID| Number of the reference grid                                         1
 PW_GRID| Grid distributed over                                    25 processors
 PW_GRID| Real space group dimensions                                    25    1
 PW_GRID| the grid is blocked:                                                NO
 PW_GRID| Cutoff [a.u.]                                                    150.0
 PW_GRID| spherical cutoff:                                                   NO
 PW_GRID|   Bounds   1            -80      79                Points:         160
 PW_GRID|   Bounds   2            -80      79                Points:         160
 PW_GRID|   Bounds   3            -80      79                Points:         160
 PW_GRID| Volume element (a.u.^3)  0.5560E-02     Volume (a.u.^3)     22775.6292
 PW_GRID| Grid span                                                    FULLSPACE
 PW_GRID|   Distribution                         Average         Max         Min
 PW_GRID|   G-Vectors                           163840.0      164000      163680
 PW_GRID|   G-Rays                                1024.0        1025        1023
 PW_GRID|   Real Space Points                   163840.0      179200      153600

 PW_GRID| Information for grid number                                          3
 PW_GRID| Number of the reference grid                                         2
 PW_GRID| Grid distributed over                                    25 processors
 PW_GRID| Real space group dimensions                                    25    1
 PW_GRID| the grid is blocked:                                                NO
 PW_GRID| Cutoff [a.u.]                                                     50.0
 PW_GRID| spherical cutoff:                                                   NO
 PW_GRID|   Bounds   1            -48      47                Points:          96
 PW_GRID|   Bounds   2            -48      47                Points:          96
 PW_GRID|   Bounds   3            -48      47                Points:          96
 PW_GRID| Volume element (a.u.^3)  0.2574E-01     Volume (a.u.^3)     22775.6292
 PW_GRID| Grid span                                                    FULLSPACE
 PW_GRID|   Distribution                         Average         Max         Min
 PW_GRID|   G-Vectors                            35389.4       35424       35328
 PW_GRID|   G-Rays                                 368.6         369         368
 PW_GRID|   Real Space Points                    35389.4       36864       27648

 PW_GRID| Information for grid number                                          4
 PW_GRID| Number of the reference grid                                         2
 PW_GRID| Grid distributed over                                    25 processors
 PW_GRID| Real space group dimensions                                    25    1
 PW_GRID| the grid is blocked:                                                NO
 PW_GRID| Cutoff [a.u.]                                                     16.7
 PW_GRID| spherical cutoff:                                                   NO
 PW_GRID|   Bounds   1            -27      26                Points:          54
 PW_GRID|   Bounds   2            -27      26                Points:          54
 PW_GRID|   Bounds   3            -27      26                Points:          54
 PW_GRID| Volume element (a.u.^3)  0.1446         Volume (a.u.^3)     22775.6292
 PW_GRID| Grid span                                                    FULLSPACE
 PW_GRID|   Distribution                         Average         Max         Min
 PW_GRID|   G-Vectors                             6298.6        6318        6264
 PW_GRID|   G-Rays                                 116.6         117         116
 PW_GRID|   Real Space Points                     6298.6        8748        5832

 PW_GRID| Information for grid number                                          5
 PW_GRID| Number of the reference grid                                         2
 PW_GRID| Grid distributed over                                    25 processors
 PW_GRID| Real space group dimensions                                    25    1
 PW_GRID| the grid is blocked:                                                NO
 PW_GRID| Cutoff [a.u.]                                                      5.6
 PW_GRID| spherical cutoff:                                                   NO
 PW_GRID|   Bounds   1            -16      15                Points:          32
 PW_GRID|   Bounds   2            -16      15                Points:          32
 PW_GRID|   Bounds   3            -16      15                Points:          32
 PW_GRID| Volume element (a.u.^3)  0.6951         Volume (a.u.^3)     22775.6292
 PW_GRID| Grid span                                                    FULLSPACE
 PW_GRID|   Distribution                         Average         Max         Min
 PW_GRID|   G-Vectors                             1310.7        1344        1280
 PW_GRID|   G-Rays                                  41.0          42          40
 PW_GRID|   Real Space Points                     1310.7        2048        1024

 PW_GRID| Information for grid number                                          6
 PW_GRID| Number of the reference grid                                         2
 PW_GRID| Grid distributed over                                    25 processors
 PW_GRID| Real space group dimensions                                    25    1
 PW_GRID| the grid is blocked:                                                NO
 PW_GRID| Cutoff [a.u.]                                                      1.9
 PW_GRID| spherical cutoff:                                                   NO
 PW_GRID|   Bounds   1             -9       8                Points:          18
 PW_GRID|   Bounds   2             -9       8                Points:          18
 PW_GRID|   Bounds   3             -9       8                Points:          18
 PW_GRID| Volume element (a.u.^3)   3.905         Volume (a.u.^3)     22775.6292
 PW_GRID| Grid span                                                    FULLSPACE
 PW_GRID|   Distribution                         Average         Max         Min
 PW_GRID|   G-Vectors                              233.3         252         216
 PW_GRID|   G-Rays                                  13.0          14          12
 PW_GRID|   Real Space Points                      233.3         324           0

 PW_GRID| Information for grid number                                          7
 PW_GRID| Number of the reference grid                                         2
 PW_GRID| Grid distributed over                                    25 processors
 PW_GRID| Real space group dimensions                                    25    1
 PW_GRID| the grid is blocked:                                                NO
 PW_GRID| Cutoff [a.u.]                                                      0.6
 PW_GRID| spherical cutoff:                                                   NO
 PW_GRID|   Bounds   1             -6       5                Points:          12
 PW_GRID|   Bounds   2             -6       5                Points:          12
 PW_GRID|   Bounds   3             -6       5                Points:          12
 PW_GRID| Volume element (a.u.^3)   13.18         Volume (a.u.^3)     22775.6292
 PW_GRID| Grid span                                                    FULLSPACE
 PW_GRID|   Distribution                         Average         Max         Min
 PW_GRID|   G-Vectors                               69.1          84          48
 PW_GRID|   G-Rays                                   5.8           7           4
 PW_GRID|   Real Space Points                       69.1         144           0

 PW_GRID| Information for grid number                                          8
 PW_GRID| Number of the reference grid                                         2
 PW_GRID| Grid distributed over                                    25 processors
 PW_GRID| Real space group dimensions                                    25    1
 PW_GRID| the grid is blocked:                                                NO
 PW_GRID| Cutoff [a.u.]                                                      0.2
 PW_GRID| spherical cutoff:                                                   NO
 PW_GRID|   Bounds   1             -3       2                Points:           6
 PW_GRID|   Bounds   2             -3       2                Points:           6
 PW_GRID|   Bounds   3             -3       2                Points:           6
 PW_GRID| Volume element (a.u.^3)   105.4         Volume (a.u.^3)     22775.6292
 PW_GRID| Grid span                                                    FULLSPACE
 PW_GRID|   Distribution                         Average         Max         Min
 PW_GRID|   G-Vectors                                8.6          12           6
 PW_GRID|   G-Rays                                   1.4           2           1
 PW_GRID|   Real Space Points                        8.6          36           0

 PW_GRID| Information for grid number                                          9
 PW_GRID| Number of the reference grid                                         2
 PW_GRID| Grid distributed over                                    25 processors
 PW_GRID| Real space group dimensions                                    25    1
 PW_GRID| the grid is blocked:                                                NO
 PW_GRID| Cutoff [a.u.]                                                      0.1
 PW_GRID| spherical cutoff:                                                   NO
 PW_GRID|   Bounds   1             -2       1                Points:           4
 PW_GRID|   Bounds   2             -2       1                Points:           4
 PW_GRID|   Bounds   3             -2       1                Points:           4
 PW_GRID| Volume element (a.u.^3)   355.9         Volume (a.u.^3)     22775.6292
 PW_GRID| Grid span                                                    FULLSPACE
 PW_GRID|   Distribution                         Average         Max         Min
 PW_GRID|   G-Vectors                                2.6           4           0
 PW_GRID|   G-Rays                                   0.6           1           0
 PW_GRID|   Real Space Points                        2.6          16           0

 PW_GRID| Information for grid number                                         10
 PW_GRID| Number of the reference grid                                         2
 PW_GRID| Grid distributed over                                    25 processors
 PW_GRID| Real space group dimensions                                    25    1
 PW_GRID| the grid is blocked:                                                NO
 PW_GRID| Cutoff [a.u.]                                                      0.0
 PW_GRID| spherical cutoff:                                                   NO
 PW_GRID|   Bounds   1             -1       0                Points:           2
 PW_GRID|   Bounds   2             -1       0                Points:           2
 PW_GRID|   Bounds   3             -1       0                Points:           2
 PW_GRID| Volume element (a.u.^3)   2847.         Volume (a.u.^3)     22775.6292
 PW_GRID| Grid span                                                    FULLSPACE
 PW_GRID|   Distribution                         Average         Max         Min
 PW_GRID|   G-Vectors                                0.3           2           0
 PW_GRID|   G-Rays                                   0.2           1           0
 PW_GRID|   Real Space Points                        0.3           4           0

 PW_GRID| Information for grid number                                         11
 PW_GRID| Number of the reference grid                                         2
 PW_GRID| Grid distributed over                                    25 processors
 PW_GRID| Real space group dimensions                                    25    1
 PW_GRID| the grid is blocked:                                                NO
 PW_GRID| Cutoff [a.u.]                                                      0.0
 PW_GRID| spherical cutoff:                                                   NO
 PW_GRID|   Bounds   1             -1       0                Points:           2
 PW_GRID|   Bounds   2             -1       0                Points:           2
 PW_GRID|   Bounds   3             -1       0                Points:           2
 PW_GRID| Volume element (a.u.^3)   2847.         Volume (a.u.^3)     22775.6292
 PW_GRID| Grid span                                                    FULLSPACE
 PW_GRID|   Distribution                         Average         Max         Min
 PW_GRID|   G-Vectors                                0.3           2           0
 PW_GRID|   G-Rays                                   0.2           1           0
 PW_GRID|   Real Space Points                        0.3           4           0

 PW_GRID| Information for grid number                                         12
 PW_GRID| Number of the reference grid                                         2
 PW_GRID| Grid distributed over                                    25 processors
 PW_GRID| Real space group dimensions                                    25    1
 PW_GRID| the grid is blocked:                                                NO
 PW_GRID| Cutoff [a.u.]                                                      0.0
 PW_GRID| spherical cutoff:                                                   NO
 PW_GRID|   Bounds   1             -1       0                Points:           2
 PW_GRID|   Bounds   2             -1       0                Points:           2
 PW_GRID|   Bounds   3             -1       0                Points:           2
 PW_GRID| Volume element (a.u.^3)   2847.         Volume (a.u.^3)     22775.6292
 PW_GRID| Grid span                                                    FULLSPACE
 PW_GRID|   Distribution                         Average         Max         Min
 PW_GRID|   G-Vectors                                0.3           2           0
 PW_GRID|   G-Rays                                   0.2           1           0
 PW_GRID|   Real Space Points                        0.3           4           0

 PW_GRID| Information for grid number                                         13
 PW_GRID| Number of the reference grid                                         2
 PW_GRID| Grid distributed over                                    25 processors
 PW_GRID| Real space group dimensions                                    25    1
 PW_GRID| the grid is blocked:                                                NO
 PW_GRID| Cutoff [a.u.]                                                      0.0
 PW_GRID| spherical cutoff:                                                   NO
 PW_GRID|   Bounds   1             -1       0                Points:           2
 PW_GRID|   Bounds   2             -1       0                Points:           2
 PW_GRID|   Bounds   3             -1       0                Points:           2
 PW_GRID| Volume element (a.u.^3)   2847.         Volume (a.u.^3)     22775.6292
 PW_GRID| Grid span                                                    FULLSPACE
 PW_GRID|   Distribution                         Average         Max         Min
 PW_GRID|   G-Vectors                                0.3           2           0
 PW_GRID|   G-Rays                                   0.2           1           0
 PW_GRID|   Real Space Points                        0.3           4           0

 PW_GRID| Information for grid number                                         14
 PW_GRID| Number of the reference grid                                         2
 PW_GRID| Grid distributed over                                    25 processors
 PW_GRID| Real space group dimensions                                    25    1
 PW_GRID| the grid is blocked:                                                NO
 PW_GRID| Cutoff [a.u.]                                                      0.0
 PW_GRID| spherical cutoff:                                                   NO
 PW_GRID|   Bounds   1             -1       0                Points:           2
 PW_GRID|   Bounds   2             -1       0                Points:           2
 PW_GRID|   Bounds   3             -1       0                Points:           2
 PW_GRID| Volume element (a.u.^3)   2847.         Volume (a.u.^3)     22775.6292
 PW_GRID| Grid span                                                    FULLSPACE
 PW_GRID|   Distribution                         Average         Max         Min
 PW_GRID|   G-Vectors                                0.3           2           0
 PW_GRID|   G-Rays                                   0.2           1           0
 PW_GRID|   Real Space Points                        0.3           4           0

 PW_GRID| Information for grid number                                         15
 PW_GRID| Number of the reference grid                                         2
 PW_GRID| Grid distributed over                                    25 processors
 PW_GRID| Real space group dimensions                                    25    1
 PW_GRID| the grid is blocked:                                                NO
 PW_GRID| Cutoff [a.u.]                                                      0.0
 PW_GRID| spherical cutoff:                                                   NO
 PW_GRID|   Bounds   1             -1       0                Points:           2
 PW_GRID|   Bounds   2             -1       0                Points:           2
 PW_GRID|   Bounds   3             -1       0                Points:           2
 PW_GRID| Volume element (a.u.^3)   2847.         Volume (a.u.^3)     22775.6292
 PW_GRID| Grid span                                                    FULLSPACE
 PW_GRID|   Distribution                         Average         Max         Min
 PW_GRID|   G-Vectors                                0.3           2           0
 PW_GRID|   G-Rays                                   0.2           1           0
 PW_GRID|   Real Space Points                        0.3           4           0

 PW_GRID| Information for grid number                                         16
 PW_GRID| Number of the reference grid                                         2
 PW_GRID| Grid distributed over                                    25 processors
 PW_GRID| Real space group dimensions                                    25    1
 PW_GRID| the grid is blocked:                                                NO
 PW_GRID| Cutoff [a.u.]                                                      0.0
 PW_GRID| spherical cutoff:                                                   NO
 PW_GRID|   Bounds   1             -1       0                Points:           2
 PW_GRID|   Bounds   2             -1       0                Points:           2
 PW_GRID|   Bounds   3             -1       0                Points:           2
 PW_GRID| Volume element (a.u.^3)   2847.         Volume (a.u.^3)     22775.6292
 PW_GRID| Grid span                                                    FULLSPACE
 PW_GRID|   Distribution                         Average         Max         Min
 PW_GRID|   G-Vectors                                0.3           2           0
 PW_GRID|   G-Rays                                   0.2           1           0
 PW_GRID|   Real Space Points                        0.3           4           0

 PW_GRID| Information for grid number                                         17
 PW_GRID| Number of the reference grid                                         2
 PW_GRID| Grid distributed over                                    25 processors
 PW_GRID| Real space group dimensions                                    25    1
 PW_GRID| the grid is blocked:                                                NO
 PW_GRID| Cutoff [a.u.]                                                      0.0
 PW_GRID| spherical cutoff:                                                   NO
 PW_GRID|   Bounds   1             -1       0                Points:           2
 PW_GRID|   Bounds   2             -1       0                Points:           2
 PW_GRID|   Bounds   3             -1       0                Points:           2
 PW_GRID| Volume element (a.u.^3)   2847.         Volume (a.u.^3)     22775.6292
 PW_GRID| Grid span                                                    FULLSPACE
 PW_GRID|   Distribution                         Average         Max         Min
 PW_GRID|   G-Vectors                                0.3           2           0
 PW_GRID|   G-Rays                                   0.2           1           0
 PW_GRID|   Real Space Points                        0.3           4           0

 POISSON| Solver                                          Martyna-Tuckerman (MT)
 POISSON| MT| Alpha                                                        7.000
 POISSON| MT| Relative cutoff                                                2.0
 POISSON| Periodicity                                                       NONE

 RS_GRID| Information for grid number                                          2
 RS_GRID|   Bounds   1            -80      79                Points:         160
 RS_GRID|   Bounds   2            -80      79                Points:         160
 RS_GRID|   Bounds   3            -80      79                Points:         160
 RS_GRID| Real space distribution over                                  5 groups
 RS_GRID| Real space distribution along direction                              2
 RS_GRID| Border size                                                         27
 RS_GRID| Real space distribution over                                  5 groups
 RS_GRID| Real space distribution along direction                              3
 RS_GRID| Border size                                                         27
 RS_GRID|   Distribution                         Average         Max         Min
 RS_GRID|   Planes                                  86.0          86          86
 RS_GRID|   Distribution                         Average         Max         Min
 RS_GRID|   Planes                                  86.0          86          86

 RS_GRID| Information for grid number                                          3
 RS_GRID|   Bounds   1            -48      47                Points:          96
 RS_GRID|   Bounds   2            -48      47                Points:          96
 RS_GRID|   Bounds   3            -48      47                Points:          96
 RS_GRID| Real space fully replicated
 RS_GRID| Group size                                                           1

 RS_GRID| Information for grid number                                          4
 RS_GRID|   Bounds   1            -27      26                Points:          54
 RS_GRID|   Bounds   2            -27      26                Points:          54
 RS_GRID|   Bounds   3            -27      26                Points:          54
 RS_GRID| Real space fully replicated
 RS_GRID| Group size                                                           1

 RS_GRID| Information for grid number                                          5
 RS_GRID|   Bounds   1            -16      15                Points:          32
 RS_GRID|   Bounds   2            -16      15                Points:          32
 RS_GRID|   Bounds   3            -16      15                Points:          32
 RS_GRID| Real space fully replicated
 RS_GRID| Group size                                                           1

 RS_GRID| Information for grid number                                          6
 RS_GRID|   Bounds   1             -9       8                Points:          18
 RS_GRID|   Bounds   2             -9       8                Points:          18
 RS_GRID|   Bounds   3             -9       8                Points:          18
 RS_GRID| Real space fully replicated
 RS_GRID| Group size                                                           1

 RS_GRID| Information for grid number                                          7
 RS_GRID|   Bounds   1             -6       5                Points:          12
 RS_GRID|   Bounds   2             -6       5                Points:          12
 RS_GRID|   Bounds   3             -6       5                Points:          12
 RS_GRID| Real space fully replicated
 RS_GRID| Group size                                                           1

 RS_GRID| Information for grid number                                          8
 RS_GRID|   Bounds   1             -3       2                Points:           6
 RS_GRID|   Bounds   2             -3       2                Points:           6
 RS_GRID|   Bounds   3             -3       2                Points:           6
 RS_GRID| Real space fully replicated
 RS_GRID| Group size                                                           1

 RS_GRID| Information for grid number                                          9
 RS_GRID|   Bounds   1             -2       1                Points:           4
 RS_GRID|   Bounds   2             -2       1                Points:           4
 RS_GRID|   Bounds   3             -2       1                Points:           4
 RS_GRID| Real space fully replicated
 RS_GRID| Group size                                                           1

 RS_GRID| Information for grid number                                         10
 RS_GRID|   Bounds   1             -1       0                Points:           2
 RS_GRID|   Bounds   2             -1       0                Points:           2
 RS_GRID|   Bounds   3             -1       0                Points:           2
 RS_GRID| Real space fully replicated
 RS_GRID| Group size                                                           1

 RS_GRID| Information for grid number                                         11
 RS_GRID|   Bounds   1             -1       0                Points:           2
 RS_GRID|   Bounds   2             -1       0                Points:           2
 RS_GRID|   Bounds   3             -1       0                Points:           2
 RS_GRID| Real space fully replicated
 RS_GRID| Group size                                                           1

 RS_GRID| Information for grid number                                         12
 RS_GRID|   Bounds   1             -1       0                Points:           2
 RS_GRID|   Bounds   2             -1       0                Points:           2
 RS_GRID|   Bounds   3             -1       0                Points:           2
 RS_GRID| Real space fully replicated
 RS_GRID| Group size                                                           1

 RS_GRID| Information for grid number                                         13
 RS_GRID|   Bounds   1             -1       0                Points:           2
 RS_GRID|   Bounds   2             -1       0                Points:           2
 RS_GRID|   Bounds   3             -1       0                Points:           2
 RS_GRID| Real space fully replicated
 RS_GRID| Group size                                                           1

 RS_GRID| Information for grid number                                         14
 RS_GRID|   Bounds   1             -1       0                Points:           2
 RS_GRID|   Bounds   2             -1       0                Points:           2
 RS_GRID|   Bounds   3             -1       0                Points:           2
 RS_GRID| Real space fully replicated
 RS_GRID| Group size                                                           1

 RS_GRID| Information for grid number                                         15
 RS_GRID|   Bounds   1             -1       0                Points:           2
 RS_GRID|   Bounds   2             -1       0                Points:           2
 RS_GRID|   Bounds   3             -1       0                Points:           2
 RS_GRID| Real space fully replicated
 RS_GRID| Group size                                                           1

 RS_GRID| Information for grid number                                         16
 RS_GRID|   Bounds   1             -1       0                Points:           2
 RS_GRID|   Bounds   2             -1       0                Points:           2
 RS_GRID|   Bounds   3             -1       0                Points:           2
 RS_GRID| Real space fully replicated
 RS_GRID| Group size                                                           1

 RS_GRID| Information for grid number                                         17
 RS_GRID|   Bounds   1             -1       0                Points:           2
 RS_GRID|   Bounds   2             -1       0                Points:           2
 RS_GRID|   Bounds   3             -1       0                Points:           2
 RS_GRID| Real space fully replicated
 RS_GRID| Group size                                                           1

 MD_PAR| Molecular dynamics protocol (MD input parameters)
 MD_PAR| Ensemble type                                                       NVT
 MD_PAR| Number of time steps                                                 10
 MD_PAR| Time step [fs]                                                 1.000000
 MD_PAR| Temperature [K]                                              300.000000
 MD_PAR| Temperature tolerance [K]                                      0.000000
 MD_PAR| Print MD information every                                    1 step(s)
 MD_PAR| File type   Print frequency [steps]                          File names
 MD_PAR| Coordinates          1                                lic-pbe-pos-1.xyz
 MD_PAR| Velocities           1                                lic-pbe-vel-1.xyz
 MD_PAR| Energies             1                                   lic-pbe-1.ener
 MD_PAR| Dump                 1                                lic-pbe-1.restart

 ROT| Rotational analysis information
 ROT| Principal axes and moments of inertia [a.u.]
 ROT|                           1                   2                   3
 ROT| Eigenvalues      3.94936384347E+07   3.96854186869E+07   3.97025707624E+07
 ROT|      x             -0.586229686154     -0.166687372673     -0.792811500209
 ROT|      y             -0.620484091679      0.721591312717      0.307091955910
 ROT|      z             -0.520897539873     -0.671953344513      0.526445111813
 ROT| Number of rotovibrational vectors                                        6

 DOF| Calculation of degrees of freedom
 DOF| Number of atoms                                                         61
 DOF| Number of intramolecular constraints                                     0
 DOF| Number of intermolecular constraints                                     0
 DOF| Invariants (translations + rotations)                                    6
 DOF| Degrees of freedom                                                     177

 DOF| Restraints information
 DOF| Number of intramolecular restraints                                      0
 DOF| Number of intermolecular restraints                                      0

 THERMOSTAT| Thermostat information for PARTICLES
 THERMOSTAT| Type of thermostat            Canonical Sampling/Velocity Rescaling
 THERMOSTAT| CSVR time constant [fs]                                   16.000000
 THERMOSTAT| Initial kinetic energy                           0.000000000000E+00
 THERMOSTAT| End of thermostat information for PARTICLES

 MD_VEL| Velocities initialization
 MD_VEL| Initial temperature [K]                                      300.000000
 MD_VEL| COM velocity             0.0000000000     0.0000000000    -0.0000000000
 MD_VEL| COM position            14.1729455922    14.1729560265    14.1729369270
 MD_VEL| Angular velocity        -0.0000016495    -0.0000003355     0.0000045365

 Spin 1

 Number of electrons:                                                        122
 Number of occupied orbitals:                                                122
 Number of molecular orbitals:                                               172

 Spin 2

 Number of electrons:                                                        121
 Number of occupied orbitals:                                                121
 Number of molecular orbitals:                                               171

 Number of orbital functions:                                                786
 Number of independent orbital functions:                                    786

 Extrapolation method: initial_guess

 Atomic guess: The first density matrix is obtained in terms of atomic orbitals
               and electronic configurations assigned to each atomic kind

 Guess for atomic kind: Li

 Electronic structure
    Total number of core electrons                                          0.00
    Total number of valence electrons                                       3.00
    Total number of electrons                                               3.00
    Multiplicity                                                   not specified
    S      2.00  1.00


 *******************************************************************************
                  Iteration          Convergence                     Energy [au]
 *******************************************************************************
                          1        0.183917E-01                  -7.254884366899
                          2        0.708463E-03                  -7.255014625585
                          3        0.226207E-04                  -7.255014906100
                          4        0.769982E-08                  -7.255014906338

 Energy components [Hartree]           Total Energy ::           -7.255014906338
                                        Band Energy ::           -3.727476619919
                                     Kinetic Energy ::            6.647757001546
                                   Potential Energy ::          -13.902771907884
                                      Virial (-V/T) ::            2.091347789134
                                        Core Energy ::           -9.649997762855
                                          XC Energy ::           -1.650332001141
                                     Coulomb Energy ::            4.045314857659
                       Total Pseudopotential Energy ::          -16.330257395237
                       Local Pseudopotential Energy ::          -16.330257395237
                    Nonlocal Pseudopotential Energy ::            0.000000000000
                                        Confinement ::            0.325026308350

 Orbital energies  State     L     Occupation   Energy[a.u.]          Energy[eV]

                       1     0          2.000      -1.833585          -49.894397
                       2     0          1.000      -0.060306           -1.641003


 Total Electron Density at R=0:                                         5.597914

 Guess for atomic kind: C

 Electronic structure
    Total number of core electrons                                          2.00
    Total number of valence electrons                                       4.00
    Total number of electrons                                               6.00
    Multiplicity                                                   not specified
    S   [  2.00] 2.00
    P      2.00


 *******************************************************************************
                  Iteration          Convergence                     Energy [au]
 *******************************************************************************
                          1        0.427148E-01                  -5.227811253113
                          2        0.218489E-01                  -5.228672519307
                          3        0.666851E-04                  -5.228969180638
                          4        0.102221E-07                  -5.228969183366

 Energy components [Hartree]           Total Energy ::           -5.228969183366
                                        Band Energy ::           -1.112012594120
                                     Kinetic Energy ::            3.667652954033
                                   Potential Energy ::           -8.896622137400
                                      Virial (-V/T) ::            2.425699009394
                                        Core Energy ::           -8.354438099696
                                          XC Energy ::           -1.430507543452
                                     Coulomb Energy ::            4.555976459783
                       Total Pseudopotential Energy ::          -12.054077133824
                       Local Pseudopotential Energy ::          -12.576063923110
                    Nonlocal Pseudopotential Energy ::            0.521986789286
                                        Confinement ::            0.319860800937

 Orbital energies  State     L     Occupation   Energy[a.u.]          Energy[eV]

                       1     0          2.000      -0.418938          -11.399891

                       1     1          2.000      -0.137068           -3.729809


 Total Electron Density at R=0:                                         0.015856

 Spin 1
 Re-scaling the density matrix to get the right number of electrons for spin 1
                  # Electrons              Trace(P)               Scaling factor
                          122               121.500                        1.004

 Spin 2
 Re-scaling the density matrix to get the right number of electrons for spin 2
                  # Electrons              Trace(P)               Scaling factor
                          121               121.500                        0.996


 SCF WAVEFUNCTION OPTIMIZATION

  Step     Update method      Time    Convergence         Total energy    Change
  ------------------------------------------------------------------------------
     1 NoMix/Dav.  0.30E+00    2.1     0.80512954      -320.9827797829 -3.21E+02
     2 Broy./Dav.  0.30E+00    3.0     0.77007792      -316.3942923230  4.59E+00
     3 Broy./Dav.  0.30E+00    3.0     0.04299776      -329.9089101489 -1.35E+01
     4 Broy./Dav.  0.30E+00    3.0     0.02356530      -341.0866086687 -1.12E+01
     5 Broy./Dav.  0.30E+00    3.1     0.01303337      -346.4214382180 -5.33E+00
     6 Broy./Dav.  0.30E+00    3.1     0.00891098      -347.3572199050 -9.36E-01
     7 Broy./Dav.  0.30E+00    3.1     0.00338689      -347.5768734898 -2.20E-01
     8 Broy./Dav.  0.30E+00    3.1     0.00216861      -347.1994632757  3.77E-01
     9 Broy./Dav.  0.30E+00    3.1     0.00177136      -347.4600764250 -2.61E-01
    10 Broy./Dav.  0.30E+00    3.1     0.00118013      -347.8437359853 -3.84E-01
    11 Broy./Dav.  0.30E+00    3.1     0.00070320      -348.0270762701 -1.83E-01
    12 Broy./Dav.  0.30E+00    3.1     0.00050823      -347.9705604207  5.65E-02
    13 Broy./Dav.  0.30E+00    3.1     0.00034813      -347.9201944544  5.04E-02
    14 Broy./Dav.  0.30E+00    3.1     0.00015001      -347.9233469547 -3.15E-03
    15 Broy./Dav.  0.30E+00    3.1     0.00017588      -347.9417505112 -1.84E-02
    16 Broy./Dav.  0.30E+00    3.1     0.00011066      -347.9548048755 -1.31E-02
    17 Broy./Dav.  0.30E+00    3.2     0.00005555      -347.9565930953 -1.79E-03
    18 Broy./Dav.  0.30E+00    3.2     0.00003473      -347.9564778206  1.15E-04
    19 Broy./Dav.  0.30E+00    3.2     0.00001473      -347.9547322719  1.75E-03
    20 Broy./Dav.  0.30E+00    3.3     0.00002247      -347.9526829948  2.05E-03
    21 Broy./Dav.  0.30E+00    3.0     0.00001161      -347.9523271181  3.56E-04
    22 Broy./Dav.  0.30E+00    3.1     0.00001124      -347.9533094974 -9.82E-04
    23 Broy./Dav.  0.30E+00    3.1     0.00000730      -347.9539881690 -6.79E-04
    24 Broy./Dav.  0.30E+00    3.1     0.00000485      -347.9539806339  7.54E-06
    25 Broy./Dav.  0.30E+00    3.1     0.00000318      -347.9539560590  2.46E-05
    26 Broy./Dav.  0.30E+00    3.1     0.00000261      -347.9539604131 -4.35E-06
    27 Broy./Dav.  0.30E+00    3.1     0.00000177      -347.9540734463 -1.13E-04
    28 Broy./Dav.  0.30E+00    3.1     0.00000080      -347.9541534756 -8.00E-05

  *** SCF run converged in    28 steps ***


  Electronic density on regular grids:       -243.0000000003       -0.0000000003
  Core density on regular grids:              243.0000000000       -0.0000000000
  Total charge density on r-space grids:       -0.0000000003
  Total charge density g-space grids:          -0.0000000003

  Overlap energy of the core charge distribution:               0.00000872905224
  Self energy of the core charge distribution:               -806.44760842082485
  Core Hamiltonian energy:                                    251.43297794161577
  Hartree energy:                                             313.73394958385444
  Exchange-correlation energy:                               -106.59034747154074
  Dispersion energy:                                           -0.08313383780333

  Total energy:                                              -347.95415347564654

  Integrated absolute spin density  :                               1.1930321405

 *** WARNING in s_square_methods.F:99 :: Found non-uniform occupation ***


 *** WARNING in s_square_methods.F:101 :: Found non-uniform occupation ***

  Ideal and single determinant S**2 :                    0.750000       0.764545

 ENERGY| Total FORCE_EVAL ( QS ) energy [a.u.]:             -347.954126482288075

 MD_INI| MD initialization
 MD_INI| Potential energy [hartree]                          -0.347954126482E+03
 MD_INI| Kinetic energy [hartree]                             0.840789473643E-01
 MD_INI| Temperature [K]                                              300.000000
 MD_INI| Cell volume [bohr^3]                                 2.277562921793E+04
 MD_INI| Cell volume [ang^3]                                  3.375000000000E+03
 MD_INI| Cell lengths [bohr]      2.83458920E+01  2.83458920E+01  2.83458920E+01
 MD_INI| Cell lengths [ang]       1.50000000E+01  1.50000000E+01  1.50000000E+01
[...]
 flops   156 x    44 x   162           5924565504       0.0%    100.0%      0.0%
 flops   162 x    44 x   156           5924565504       0.0%    100.0%      0.0%
 flops    13 x    21 x    13           6694833600       0.0%    100.0%      0.0%
 flops   156 x    43 x   162           6746208768       0.0%    100.0%      0.0%
 flops   162 x    43 x   156           6746208768       0.0%    100.0%      0.0%
 flops    13 x    14 x    13           7052572800       0.0%    100.0%      0.0%
 flops    13 x    13 x    31           8475235080       0.0%    100.0%      0.0%
 flops    13 x    13 x    43          12873054480       0.0%    100.0%      0.0%
 flops    13 x    13 x    44          13172427840       0.0%    100.0%      0.0%
 flops    13 x    32 x     6          13623966720       0.0%    100.0%      0.0%
 flops     6 x    32 x    13          13623966720       0.0%    100.0%      0.0%
 flops    32 x    44 x   156          16250437632       0.0%    100.0%      0.0%
 flops    44 x    32 x   156          16250437632       0.0%    100.0%      0.0%
 flops    32 x    43 x   156          17577750528       0.0%    100.0%      0.0%
 flops    43 x    32 x   156          17577750528       0.0%    100.0%      0.0%
 flops    13 x    13 x    13          18018475800       0.0%    100.0%      0.0%
 flops    13 x    31 x    13          18030542400       0.0%    100.0%      0.0%
 flops   156 x    44 x   156          22820548608       0.0%    100.0%      0.0%
 flops   162 x    32 x   162          24011790336       0.0%    100.0%      0.0%
 flops   156 x    43 x   156          25985396736       0.0%    100.0%      0.0%
 flops    13 x    11 x    13          41988117600       0.0%    100.0%      0.0%
 flops    13 x    12 x    13          49791456000       0.0%    100.0%      0.0%
 flops    32 x    32 x   162          54141198336       0.0%    100.0%      0.0%
 flops    13 x    13 x    32          78757461120       0.0%    100.0%      0.0%
 flops   156 x    32 x   162          92489859072       0.0%    100.0%      0.0%
 flops   162 x    32 x   156          92489859072       0.0%    100.0%      0.0%
 flops    32 x    32 x   156         208543875072       0.0%    100.0%      0.0%
 flops   156 x    32 x   156         356257234944       0.0%    100.0%      0.0%
 flops    13 x    32 x    13        1771115673600       0.0%    100.0%      0.0%
 flops inhomo. stacks                    28762110       0.0%    100.0%      0.0%
 flops total                         3.199019E+12       0.0%    100.0%      0.0%
 flops max/rank                    161.821345E+09       0.0%    100.0%      0.0%
 matmuls inhomo. stacks                     85095       0.0%    100.0%      0.0%
 matmuls total                          222450474       0.0%    100.0%      0.0%
 number of processed stacks               3967009       0.0%    100.0%      0.0%
 average stack size                                     0.0      56.1       0.0
 marketing flops                     3.256267E+12
 -------------------------------------------------------------------------------
 # multiplications                          26788
 max memory usage/rank             387.850240E+06
 # max total images/rank                        1
 # max 3D layers                                1
 # MPI messages exchanged                 5357600
 MPI messages size (bytes):
  total size                       431.438463E+09
  min size                           0.000000E+00
  max size                         209.952000E+03
  average size                      80.528305E+03
 MPI breakdown and total messages size (bytes):
             size <=      128              265040                        0
       128 < size <=     8192               19224                 86279104
      8192 < size <=    32768              278628               5058526528
     32768 < size <=   131072             3348908             140600861568
    131072 < size <=  4194304             1445800             285827026176
   4194304 < size <= 16777216                   0                        0
  16777216 < size                               0                        0
 -------------------------------------------------------------------------------
 -                                                                             -
 -                      DBCSR MESSAGE PASSING PERFORMANCE                      -
 -                                                                             -
 -------------------------------------------------------------------------------
 ROUTINE             CALLS      AVE VOLUME [Bytes]
 MP_Bcast              687                     12.
 MP_Allreduce       117313                     30.
 MP_Alltoall        233928                  10736.
 MP_ISend           535760                  34516.
 MP_IRecv           535760                  34665.
 -------------------------------------------------------------------------------

 -------------------------------------------------------------------------------
 -                                                                             -
 -                                GRID STATISTICS                              -
 -                                                                             -
 -------------------------------------------------------------------------------
 LP    KERNEL             BACKEND                              COUNT     PERCENT
 4     collocate ortho    REF                               65987564      48.71%
 4     integrate ortho    REF                               64492834      47.61%
 3     collocate ortho    REF                                1702800       1.26%
 3     integrate ortho    REF                                1663750       1.23%
 5     integrate ortho    REF                                1534330       1.13%
 2     collocate ortho    REF                                  23650       0.02%
 2     integrate ortho    REF                                  23100       0.02%
 0     collocate general  REF                                  16775       0.01%
 1     integrate general  REF                                  16775       0.01%
 -------------------------------------------------------------------------------

 MEMORY| Estimated peak process memory [MiB]                                 370

 -------------------------------------------------------------------------------
 ----                             MULTIGRID INFO                            ----
 -------------------------------------------------------------------------------
 count for grid        1:         989133          cutoff [a.u.]          150.00
 count for grid        2:         377751          cutoff [a.u.]           50.00
 count for grid        3:         354232          cutoff [a.u.]           16.67
 count for grid        4:         242123          cutoff [a.u.]            5.56
 count for grid        5:          56801          cutoff [a.u.]            1.85
 count for grid        6:              0          cutoff [a.u.]            0.62
 count for grid        7:              0          cutoff [a.u.]            0.21
 count for grid        8:              0          cutoff [a.u.]            0.07
 count for grid        9:              0          cutoff [a.u.]            0.02
 count for grid       10:              0          cutoff [a.u.]            0.01
 count for grid       11:              0          cutoff [a.u.]            0.00
 count for grid       12:              0          cutoff [a.u.]            0.00
 count for grid       13:              0          cutoff [a.u.]            0.00
 count for grid       14:              0          cutoff [a.u.]            0.00
 count for grid       15:              0          cutoff [a.u.]            0.00
 count for grid       16:              0          cutoff [a.u.]            0.00
 total gridlevel count  :        2020040

 -------------------------------------------------------------------------------
 -                                                                             -
 -                         MESSAGE PASSING PERFORMANCE                         -
 -                                                                             -
 -------------------------------------------------------------------------------

 ROUTINE             CALLS      AVE VOLUME [Bytes]
 MP_Group               17
 MP_Bcast             2940                 128455.
 MP_Allreduce        33764                    864.
 MP_Sync              2380
 MP_Alltoall         34915                1405430.
 MP_SendRecv         12408                 187493.
 MP_ISendRecv       681120                  25713.
 MP_Wait            742368
 MP_comm_split        2364
 MP_ISend            55506                 325032.
 MP_IRecv            55506                 325032.
 MP_Recv               280                 201216.
 -------------------------------------------------------------------------------


 -------------------------------------------------------------------------------
 -                                                                             -
 -                           R E F E R E N C E S                               -
 -                                                                             -
 -------------------------------------------------------------------------------
 
 CP2K version 8.0 (Development Version), the CP2K developers group (2020).
 CP2K is freely available from https://www.cp2k.org/ .

 Kuehne,Thomas D.; Iannuzzi,Marcella; Del Ben,Mauro;
 Rybkin,Vladimir V.; Seewald,Patrick; Stein,Frederick; Laino,Teodoro;
 Khaliullin,Rustam Z.; Schuett,Ole; Schiffmann,Florian; Golze,Dorothea;
 Wilhelm,Jan; Chulkov,Sergey; Bani-Hashemian,Mohammad Hossein;
 Weber,Valery; Borstnik,Urban; Taillefumier,Mathieu;
 Jakobovits,Alice Shoshana; Lazzaro,Alfio; Pabst,Hans; Mueller,Tiziano;
 Schade,Robert; Guidon,Manuel; Andermatt,Samuel; Holmberg,Nico;
 Schenter,Gregory K.; Hehn,Anna; Bussy,Augustin; Belleflamme,Fabian;
 Tabacchi,Gloria; Gloess,Andreas; Lass,Michael; Bethune,Iain;
 Mundy,Christopher J.; Plessl,Christian; Watkins,Matt;
 VandeVondele,Joost; Krack,Matthias; Hutter,Juerg. 
 The Journal of Chemical Physics, 152 (19), (2020). 
 CP2K: An electronic structure and molecular dynamics software package -
 Quickstep: Efficient and accurate electronic structure calculations.
 https://doi.org/10.1063/5.0007045

 Goerigk, Lars; Hansen, Andreas; Bauer, Christoph; Ehrlich, Stephan;
 Najibi, Asim; Grimme, Stefan. , 19 (48), (2017). 
 A look at the density functional theory zoo with the advanced GMTKN55 database
 for general main group thermochemistry, kinetics and noncovalent interactions.
 https://doi.org/10.1039/C7CP04913G

 Schuett, Ole; Messmer, Peter; Hutter, Juerg; VandeVondele, Joost. 
 Electronic Structure Calculations on Graphics Processing Units, John
 Wiley & Sons, Ltd, 173-190 (2016). 
 GPU-Accelerated Sparse Matrix-Matrix Multiplication for
 Linear Scaling Density Functional Theory.
 https://doi.org/10.1002/9781118670712.ch8

 Borstnik, U; VandeVondele, J; Weber, V; Hutter, J. 
 PARALLEL COMPUTING, 40 (5-6), 47-58 (2014). 
 Sparse matrix multiplication: The distributed block-compressed sparse
 row library.
 https://doi.org/10.1016/j.parco.2014.03.012

 Hutter, J; Iannuzzi, M; Schiffmann, F; VandeVondele, J. 
 WIREs Comput Mol Sci., 4 (1), 15-25 (2014). 
 CP2K: atomistic simulations of condensed matter systems.
 https://doi.org/10.1002/wcms.1159

 Grimme, S; Ehrlich, S; Goerigk, L. 
 JOURNAL OF COMPUTATIONAL CHEMISTRY, 32, 1456 (2011). 
 Effect of the damping function in dispersion corrected density functional theory.
 https://doi.org/10.1002/jcc.21759

 Grimme, S; Antony, J; Ehrlich, S; Krieg, H. 
 JOURNAL OF CHEMICAL PHYSICS, 132 (15), 154104 (2010). 
 A consistent and accurate ab initio parametrization of density
 functional dispersion correction (DFT-D) for the 94 elements H-Pu.
 https://doi.org/10.1063/1.3382344

 VandeVondele, J; Hutter, J. 
 JOURNAL OF CHEMICAL PHYSICS, 127 (11), 114105 (2007). 
 Gaussian basis sets for accurate calculations on molecular systems in
 gas and condensed phases.
 https://doi.org/10.1063/1.2770708

 Kuhne, TD; Krack, M; Mohamed, FR; Parrinello, M. 
 PHYSICAL REVIEW LETTERS, 98 (6), 066401 (2007). 
 Efficient and accurate Car-Parrinello-like approach to
 Born-Oppenheimer molecular dynamics.
 https://doi.org/10.1103/PhysRevLett.98.066401

 Bussi, G; Donadio, D; Parrinello, M. 
 JOURNAL OF CHEMICAL PHYSICS, 126 (1), 014101 (2007). 
 Canonical sampling through velocity rescaling.
 https://doi.org/10.1063/1.2408420

 Krack, M. 
 THEORETICAL CHEMISTRY ACCOUNTS, 114 (1-3), 145-152 (2005). 
 Pseudopotentials for H to Kr optimized for gradient-corrected
 exchange-correlation functionals.
 https://doi.org/10.1007/s00214-005-0655-y

 VandeVondele, J; Krack, M; Mohamed, F; Parrinello, M; Chassaing, T;
 Hutter, J. COMPUTER PHYSICS COMMUNICATIONS, 167 (2), 103-128 (2005). 
 QUICKSTEP: Fast and accurate density functional calculations using a
 mixed Gaussian and plane waves approach.
 https://doi.org/10.1016/j.cpc.2004.12.014

 Frigo, M; Johnson, SG. 
 PROCEEDINGS OF THE IEEE, 93 (2), 216-231 (2005). 
 The design and implementation of FFTW3.
 https://doi.org/10.1109/JPROC.2004.840301

 Kolafa, J. 
 JOURNAL OF COMPUTATIONAL CHEMISTRY, 25 (3), 335-342 (2004). 
 Time-reversible always stable predictor-corrector method for molecular dynamics of polarizable molecules.
 https://doi.org/10.1002/jcc.10385

 Martyna, GJ; Tuckerman, ME. 
 JOURNAL OF CHEMICAL PHYSICS, 110 (6), 2810-2821 (1999). 
 A reciprocal space based method for treating long range interactions in
 ab initio and force-field-based calculations in clusters.
 https://doi.org/10.1063/1.477923

 Hartwigsen, C; Goedecker, S; Hutter, J. 
 PHYSICAL REVIEW B, 58 (7), 3641-3662 (1998). 
 Relativistic separable dual-space Gaussian pseudopotentials from H to Rn.
 https://doi.org/10.1103/PhysRevB.58.3641

 Lippert, G; Hutter, J; Parrinello, M. 
 MOLECULAR PHYSICS, 92 (3), 477-487 (1997). 
 A hybrid Gaussian and plane wave density functional scheme.
 https://doi.org/10.1080/002689797170220

 Perdew, JP; Burke, K; Ernzerhof, M. 
 PHYSICAL REVIEW LETTERS, 77 (18), 3865-3868 (1996). 
 Generalized gradient approximation made simple.
 https://doi.org/10.1103/PhysRevLett.77.3865

 Goedecker, S; Teter, M; Hutter, J. 
 PHYSICAL REVIEW B, 54 (3), 1703-1710 (1996). 
 Separable dual-space Gaussian pseudopotentials.
 https://doi.org/10.1103/PhysRevB.54.1703


 -------------------------------------------------------------------------------
 -                                                                             -
 -                                T I M I N G                                  -
 -                                                                             -
 -------------------------------------------------------------------------------
 SUBROUTINE                       CALLS  ASD         SELF TIME        TOTAL TIME
                                MAXIMUM       AVERAGE  MAXIMUM  AVERAGE  MAXIMUM
 CP2K                                 1  1.0    0.028    0.043 1675.122 1675.122
 qs_mol_dyn_low                       1  2.0    0.004    0.005 1674.676 1674.679
 qs_forces                           11  3.9    0.001    0.001 1674.529 1674.529
 qs_energies                         11  4.9    0.001    0.001 1651.642 1651.643
 scf_env_do_scf                      11  5.9    0.001    0.001 1630.694 1630.695
 scf_env_do_scf_inner_loop          462  6.9    0.023    0.044 1630.392 1630.675
 velocity_verlet                     10  3.0    0.001    0.002 1583.584 1583.586
 rebuild_ks_matrix                  473  8.9    0.001    0.002  684.816  684.858
 qs_ks_build_kohn_sham_matrix       473  9.9    0.062    0.073  684.815  684.857
 qs_ks_update_qs_env                462  7.9    0.004    0.005  665.470  665.511
 qs_rho_update_rho                  473  8.0    0.003    0.004  565.176  565.204
 calculate_rho_elec                 946  9.0    0.684    0.752  565.173  565.201
 sum_up_and_integrate               473 10.9    1.103    1.426  541.003  541.296
 integrate_v_rspace                 946 11.9    0.027    0.034  539.896  540.826
 grid_collocate_task_list           946 10.0  321.363  448.905  321.363  448.905
 grid_integrate_task_list           946 12.9  274.393  412.760  274.393  412.760
 rs_pw_transfer                   30294 12.4    0.177    0.208  243.959  324.492
 density_rs2pw                      946 10.0    0.089    0.097  239.130  321.096
 qs_scf_new_mos                     462  7.9    0.003    0.004  288.306  288.346
 do_block_davidson_diag             462  8.9    0.009    0.012  288.303  288.342
 generate_extended_space_sparse     924  9.9    0.206    0.213  278.464  278.488
 mp_waitany                       55506 14.4  153.529  236.531  153.529  236.531
 rs_pw_transfer_RS2PW_150           957 11.9    7.955   10.855  144.233  224.828
 mp_alltoall_d11v                 88932 13.4  140.345  218.486  140.345  218.486
 reduce_extended_space             1789 10.9    0.081    0.091  217.903  218.243
 rs_gather_matrices                 946 12.9    0.122    0.174  139.241  217.827
 cp_fm_power                        407 12.0   57.566  132.209  182.250  182.271
 pw_transfer                      33551 12.2    1.351    1.529  170.119  178.545
 fft_wrap_pw1pw2                  32605 13.3    0.161    0.173  166.837  175.711
 fft_wrap_pw1pw2_150               4224 13.2   12.076   14.457  149.487  164.227
 cp_fm_syrk                         407 13.0  119.300  159.996  119.300  159.996
 fft3d_ps                         32605 15.3   82.413   99.811  134.465  151.432
 potential_pw2rs                    946 12.9    0.129    0.136  126.217  127.203
 gspace_mixing                      451  7.9    0.671    0.736  124.175  124.175
 qs_vxc_create                      473 10.9    0.008    0.009  114.616  116.695
 xc_vxc_pw_create                   473 11.9    2.968    3.873  114.608  116.688
 mp_alltoall_z22v                 32605 17.3   39.451   94.235   39.451   94.235
 xc_rho_set_and_dset_create         473 12.9    3.732    4.635   84.751   93.766
 broyden_mixing                     451  8.9   63.245   81.381   80.993   81.754
 xc_functional_eval                 473 13.9    0.006    0.010   61.072   69.846
 pbe_lsd_eval                       473 14.9   61.066   69.841   61.066   69.841
 rs_pw_transfer_PW2RS_150           957 14.8   29.263   35.981   59.034   64.043
 mp_waitall_1                   2186990 15.2   40.266   60.423   40.266   60.423
 pw_nn_compose_r                   5676 13.4   23.888   25.008   40.728   59.152
 x_to_yz                          16511 17.3    7.253    9.119   28.528   54.546
 dbcsr_multiply_generic           26788 11.3    0.770    0.786   50.065   51.069
 yz_to_x                          16094 15.1    3.837    6.037   22.012   47.032
 cp_fm_syevd                       2364 12.2    0.009    0.012   40.611   40.670
 cp_fm_redistribute_end            2364 13.2   26.146   39.899   26.280   39.989
 cp_fm_syevd_base                  2364 13.2   13.649   39.247   13.649   39.247
 rs_pw_transfer_PW2RS_50            946 14.9    5.720    6.798   19.716   38.883
 mp_sum_d                          7444 10.2   15.777   38.335   15.777   38.335
 mp_sendrecv_dm2                  11352 14.4   16.840   36.666   16.840   36.666
 multiply_cannon                  26788 12.3    1.438    1.482   29.879   35.440
 -------------------------------------------------------------------------------

 The number of warnings for this run is : 30
 
 -------------------------------------------------------------------------------
  **** **** ******  **  PROGRAM ENDED AT                 2021-11-25 20:40:09.757
 ***** ** ***  *** **   PROGRAM RAN ON                                      hpc5
 **    ****   ******    PROGRAM RAN BY                                  97425008
 ***** **    ** ** **   PROGRAM PROCESS ID                                 75811
  **** **  *******  **  PROGRAM STOPPED IN       /home/97425008/mohamed/step1_MD
