      61
 i =        0, time =        0.000, E =      -347.9541264823
 Li         0.0004401062       -0.0002646334       -0.0000857709
  C         0.0001197764       -0.0000870293       -0.0001149159
  C        -0.0000832551       -0.0001429574       -0.0002243568
  C         0.0004313131       -0.0003111283        0.0001423158
  C         0.0004017434       -0.0001590490        0.0000480237
  C         0.0001375342       -0.0001504998        0.0002828779
  C         0.0000039794       -0.0001474409        0.0001725443
  C        -0.0003206580       -0.0002476329       -0.0001739532
  C        -0.0002440319        0.0002061598       -0.0002115822
  C        -0.0000409440        0.0004355036       -0.0001512948
  C        -0.0000889665        0.0003557952       -0.0001559337
  C         0.0001596375       -0.0000692815        0.0002563724
  C         0.0000049330        0.0000809113       -0.0002689811
  C        -0.0001502217       -0.0000490538        0.0001844189
  C        -0.0000262985        0.0003860913       -0.0000022853
  C         0.0004218604        0.0001300219        0.0000529493
  C        -0.0000162475       -0.0003127716        0.0002285640
  C        -0.0000680055        0.0000899882        0.0000693304
  C         0.0001253363        0.0000060713       -0.0000562261
  C        -0.0001407509        0.0001939682        0.0000931110
  C         0.0001284467       -0.0000244194        0.0004336634
  C        -0.0002417777        0.0000050623       -0.0001036907
  C         0.0003175639        0.0000066545       -0.0001340790
  C        -0.0005965345       -0.0000542077        0.0000216652
  C        -0.0002273337        0.0001732045       -0.0001487250
  C         0.0003203174        0.0002166179        0.0002681895
  C         0.0001143262       -0.0003264884        0.0000911822
  C         0.0000762663        0.0000137410       -0.0000065918
  C        -0.0003586255       -0.0000484763        0.0001181323
  C        -0.0002734334        0.0000090267       -0.0000959128
  C        -0.0000185896        0.0002755475        0.0001860186
  C        -0.0001463579        0.0001286851        0.0002046696
  C         0.0004418148        0.0002436945        0.0002458932
  C         0.0000749268       -0.0002017388       -0.0001704805
  C         0.0004076097        0.0001528300       -0.0001576928
  C        -0.0002668098       -0.0002355450        0.0000211473
  C        -0.0003696988        0.0001780323       -0.0001126501
  C        -0.0001002131        0.0003836321        0.0000998830
  C         0.0000056831       -0.0000651365       -0.0000238160
  C        -0.0003190993       -0.0000121911        0.0000150998
  C         0.0000402631        0.0000271538       -0.0003589725
  C        -0.0001097017       -0.0002313667       -0.0001346731
  C        -0.0001184966       -0.0001018627       -0.0001025252
  C         0.0000583752       -0.0001366469       -0.0000351741
  C        -0.0003555010       -0.0003573399       -0.0000318022
  C        -0.0000573213       -0.0001127492       -0.0002259690
  C         0.0001316038        0.0000538589       -0.0004567134
  C         0.0001032853        0.0003145485       -0.0000169423
  C        -0.0003308857       -0.0000566388       -0.0000972945
  C         0.0001384806       -0.0001083728        0.0000537147
  C         0.0001238408       -0.0000140524       -0.0000265301
  C         0.0002454547       -0.0002209620        0.0002309821
  C         0.0001148912        0.0004497441        0.0002010306
  C         0.0000150258        0.0000225138        0.0000318824
  C        -0.0003343458       -0.0000632722       -0.0003824480
  C        -0.0001787956       -0.0002054562       -0.0000618685
  C         0.0002669365       -0.0000470484       -0.0001334097
  C         0.0003873068       -0.0001026785        0.0002721015
  C         0.0000479492       -0.0000289829        0.0002816839
  C         0.0000682997       -0.0001004948       -0.0000969324
  C        -0.0001062183        0.0001468454        0.0002165427
      61
 i =        1, time =        1.000, E =      -347.9516624930
 Li         0.0004331465       -0.0002605542       -0.0000843591
  C         0.0001027245       -0.0000922557       -0.0001145510
  C        -0.0000801958       -0.0001642415       -0.0002130820
  C         0.0004201810       -0.0003348497        0.0001316437
  C         0.0003892858       -0.0001680909        0.0000311488
  C         0.0001348228       -0.0001445032        0.0002523019
  C         0.0000094596       -0.0001443690        0.0001612521
  C        -0.0003402642       -0.0002443348       -0.0001676468
  C        -0.0002507359        0.0001940996       -0.0002120229
  C        -0.0000667278        0.0004231319       -0.0001529667
  C        -0.0000714148        0.0003467052       -0.0001511317
  C         0.0001544191       -0.0000847825        0.0002608086
  C         0.0000040275        0.0000580201       -0.0002558019
  C        -0.0001525026       -0.0000635048        0.0001700424
  C        -0.0000323535        0.0003603813       -0.0000005210
  C         0.0004065085        0.0001308936        0.0000575401
  C         0.0000151527       -0.0003020399        0.0002247703
  C        -0.0000533585        0.0000889713        0.0000599567
  C         0.0001276026       -0.0000278905       -0.0000504820
  C        -0.0001346750        0.0001617901        0.0000903281
  C         0.0001328396       -0.0000327986        0.0004264475
  C        -0.0002245286        0.0000099131       -0.0001128837
  C         0.0003000527        0.0000060637       -0.0001524002
  C        -0.0005771841       -0.0000505864        0.0000023890
  C        -0.0002014452        0.0001651797       -0.0001417940
  C         0.0003327935        0.0002075036        0.0002475179
  C         0.0001052746       -0.0003101722        0.0000852959
  C         0.0000617346        0.0000153072       -0.0000228735
  C        -0.0003485114       -0.0000567348        0.0000968564
  C        -0.0002603673        0.0000124805       -0.0000752580
  C        -0.0000176171        0.0002687296        0.0001532910
  C        -0.0001423441        0.0001339600        0.0002179183
  C         0.0004281408        0.0002361520        0.0002644630
  C         0.0000813689       -0.0001852302       -0.0001618245
  C         0.0003935008        0.0001704247       -0.0001494363
  C        -0.0002541321       -0.0001990473        0.0000262018
  C        -0.0003636167        0.0001652170       -0.0000948947
  C        -0.0001032346        0.0003713779        0.0001147528
  C         0.0000074188       -0.0000579982       -0.0000027193
  C        -0.0003295772       -0.0000081369        0.0000181801
  C         0.0000129002        0.0000271586       -0.0003454735
  C        -0.0001018067       -0.0002244055       -0.0001184951
  C        -0.0001040226       -0.0001020036       -0.0000849494
  C         0.0000572209       -0.0001276597       -0.0000164071
  C        -0.0003448541       -0.0003483873       -0.0000491913
  C        -0.0000567858       -0.0001138924       -0.0001914938
  C         0.0001227835        0.0000583052       -0.0004369836
  C         0.0001237987        0.0003129394       -0.0000245691
  C        -0.0003048882       -0.0000531807       -0.0000949798
  C         0.0001593141       -0.0001056246        0.0000581768
  C         0.0001048736       -0.0000197468       -0.0000264885
  C         0.0002352847       -0.0001989270        0.0002140404
  C         0.0001101234        0.0004606193        0.0001894845
  C         0.0000211418        0.0000396161        0.0000326061
  C        -0.0003120339       -0.0000484301       -0.0003693852
  C        -0.0001736260       -0.0001995885       -0.0000676937
  C         0.0002338143       -0.0000417207       -0.0001259207
  C         0.0003632615       -0.0001000019        0.0002676505
  C         0.0000422524        0.0000045185        0.0002720272
  C         0.0000670478       -0.0000684853       -0.0000913625
  C        -0.0001084188        0.0001444080        0.0001978986
      61
 i =        2, time =        2.000, E =      -347.9442559988
 Li         0.0004260643       -0.0002566099       -0.0000828148
  C         0.0000788309       -0.0000929973       -0.0001096084
  C        -0.0000719689       -0.0001875580       -0.0001891303
  C         0.0003953008       -0.0003552405        0.0001143018
  C         0.0003576293       -0.0001821275        0.0000160164
  C         0.0001326809       -0.0001331494        0.0002165566
  C         0.0000089248       -0.0001340278        0.0001297970
  C        -0.0003580933       -0.0002316064       -0.0001611487
  C        -0.0002508638        0.0001770406       -0.0002130494
  C        -0.0000950330        0.0003992703       -0.0001472124
  C        -0.0000552776        0.0003226921       -0.0001386038
  C         0.0001434056       -0.0001045852        0.0002547043
  C         0.0000002501        0.0000359438       -0.0002337309
  C        -0.0001532549       -0.0000760223        0.0001408393
  C        -0.0000309175        0.0003270921        0.0000031762
  C         0.0003780816        0.0001376041        0.0000600183
  C         0.0000504294       -0.0002792001        0.0002184348
  C        -0.0000387202        0.0000898828        0.0000463403
  C         0.0001309600       -0.0000615896       -0.0000360235
  C        -0.0001227331        0.0001284000        0.0000841643
  C         0.0001351318       -0.0000508789        0.0004035321
  C        -0.0001941300        0.0000074429       -0.0001173538
  C         0.0002557579        0.0000091715       -0.0001748344
  C        -0.0005319558       -0.0000376828       -0.0000121794
  C        -0.0001725117        0.0001529293       -0.0001249329
  C         0.0003275926        0.0001911434        0.0002021230
  C         0.0000935432       -0.0002775335        0.0000865918
  C         0.0000450301        0.0000194856       -0.0000395281
  C        -0.0003241537       -0.0000694954        0.0000732823
  C        -0.0002328313        0.0000149149       -0.0000520504
  C        -0.0000172662        0.0002496306        0.0001178665
  C        -0.0001268670        0.0001366570        0.0002299338
  C         0.0003994076        0.0002230513        0.0002810898
  C         0.0000804951       -0.0001603871       -0.0001490124
  C         0.0003623126        0.0001833398       -0.0001280124
  C        -0.0002196776       -0.0001577833        0.0000318296
  C        -0.0003444356        0.0001501018       -0.0000719358
  C        -0.0001124763        0.0003426950        0.0001260709
  C         0.0000053204       -0.0000439900        0.0000173139
  C        -0.0003298315       -0.0000024539        0.0000262703
  C        -0.0000142735        0.0000245908       -0.0003229989
  C        -0.0000931207       -0.0002064361       -0.0000915043
  C        -0.0000886903       -0.0001046205       -0.0000677463
  C         0.0000497998       -0.0001182006        0.0000024591
  C        -0.0003219308       -0.0003250229       -0.0000666551
  C        -0.0000550770       -0.0001132371       -0.0001522125
  C         0.0001173683        0.0000669433       -0.0003902417
  C         0.0001380807        0.0003067641       -0.0000404976
  C        -0.0002658809       -0.0000565392       -0.0000974952
  C         0.0001762543       -0.0001000651        0.0000574840
  C         0.0000857331       -0.0000283908       -0.0000301689
  C         0.0002138945       -0.0001686236        0.0001983745
  C         0.0001011357        0.0004633641        0.0001700377
  C         0.0000291302        0.0000591501        0.0000287233
  C        -0.0002773266       -0.0000369859       -0.0003417423
  C        -0.0001676397       -0.0001890770       -0.0000740154
  C         0.0002009758       -0.0000286765       -0.0001061725
  C         0.0003307035       -0.0000965614        0.0002513073
  C         0.0000342773        0.0000361853        0.0002528295
  C         0.0000667410       -0.0000328224       -0.0000770795
  C        -0.0001037652        0.0001348998        0.0001654567
      61
 i =        3, time =        3.000, E =      -347.9339319436
 Li         0.0004279664       -0.0002582738       -0.0000829209
  C         0.0000500648       -0.0000912402       -0.0001025297
  C        -0.0000604576       -0.0002165487       -0.0001581566
  C         0.0003655454       -0.0003800134        0.0000930256
  C         0.0003166145       -0.0002038171        0.0000028874
  C         0.0001336592       -0.0001200485        0.0001810049
  C         0.0000029939       -0.0001193109        0.0000825600
  C        -0.0003813046       -0.0002153574       -0.0001576252
  C        -0.0002498476        0.0001587286       -0.0002192913
  C        -0.0001272101        0.0003731231       -0.0001383812
  C        -0.0000414894        0.0002915020       -0.0001213473
  C         0.0001303492       -0.0001304536        0.0002440786
  C        -0.0000063492        0.0000153330       -0.0002078026
  C        -0.0001558057       -0.0000883523        0.0001014378
  C        -0.0000238581        0.0002939203        0.0000081978
  C         0.0003455609        0.0001522865        0.0000614880
  C         0.0000900049       -0.0002515305        0.0002140961
  C        -0.0000250421        0.0000938277        0.0000304477
  C         0.0001382717       -0.0000962885       -0.0000145521
  C        -0.0001077759        0.0000964144        0.0000765431
  C         0.0001380598       -0.0000782404        0.0003753324
  C        -0.0001560479       -0.0000015065       -0.0001197812
  C         0.0001926280        0.0000155634       -0.0002044420
  C        -0.0004746814       -0.0000179530       -0.0000223761
  C        -0.0001447203        0.0001404951       -0.0001021911
  C         0.0003134385        0.0001728100        0.0001395178
  C         0.0000813167       -0.0002360660        0.0000962290
  C         0.0000270226        0.0000261394       -0.0000572166
  C        -0.0002936265       -0.0000871176        0.0000493665
  C        -0.0001973239        0.0000169613       -0.0000276180
  C        -0.0000176055        0.0002244962        0.0000825294
  C        -0.0001027861        0.0001400914        0.0002453994
  C         0.0003643239        0.0002096914        0.0003015251
  C         0.0000755014       -0.0001318790       -0.0001355755
  C         0.0003220938        0.0001957626       -0.0000969634
  C        -0.0001691795       -0.0001154383        0.0000385185
  C        -0.0003204031        0.0001362964       -0.0000459887
  C        -0.0001300816        0.0003065218        0.0001365753
  C        -0.0000006297       -0.0000252552        0.0000368697
  C        -0.0003269780        0.0000045763        0.0000396866
  C        -0.0000416692        0.0000200493       -0.0002989245
  C        -0.0000852026       -0.0001834172       -0.0000574061
  C        -0.0000740917       -0.0001111980       -0.0000523043
  C         0.0000376342       -0.0001111053        0.0000213526
  C        -0.0002941825       -0.0002952341       -0.0000854999
  C        -0.0000537796       -0.0001135180       -0.0001117402
  C         0.0001170379        0.0000801262       -0.0003284467
  C         0.0001498708        0.0003021396       -0.0000647081
  C        -0.0002211544       -0.0000666218       -0.0001058146
  C         0.0001930589       -0.0000941654        0.0000535513
  C         0.0000683170       -0.0000394717       -0.0000380043
  C         0.0001867315       -0.0001340384        0.0001882095
  C         0.0000908892        0.0004679608        0.0001461337
  C         0.0000397039        0.0000824411        0.0000213899
  C        -0.0002373725       -0.0000292047       -0.0003081777
  C        -0.0001644612       -0.0001783548       -0.0000820540
  C         0.0001727325       -0.0000091721       -0.0000776802
  C         0.0002972151       -0.0000940507        0.0002290151
  C         0.0000251578        0.0000669236        0.0002301199
  C         0.0000680400        0.0000055942       -0.0000560051
  C        -0.0000948704        0.0001217581        0.0001242527
      61
 i =        4, time =        4.000, E =      -347.9238730067
 Li         0.0004229721       -0.0002559503       -0.0000816149
  C         0.0000149492       -0.0000839264       -0.0000897330
  C        -0.0000438883       -0.0002430355       -0.0001162039
  C         0.0003176645       -0.0003956449        0.0000646909
  C         0.0002566257       -0.0002245370       -0.0000087255
  C         0.0001322344       -0.0001016441        0.0001392529
  C        -0.0000079819       -0.0000959795        0.0000185163
  C        -0.0003953301       -0.0001887277       -0.0001508932
  C        -0.0002388967        0.0001331329       -0.0002224171
  C        -0.0001582007        0.0003312171       -0.0001226861
  C        -0.0000280320        0.0002436498       -0.0000952023
  C         0.0001108687       -0.0001570227        0.0002206181
  C        -0.0000154519       -0.0000050854       -0.0001704713
  C        -0.0001542974       -0.0000976015        0.0000500255
  C        -0.0000118035        0.0002504673        0.0000135223
  C         0.0002966942        0.0001681191        0.0000593186
  C         0.0001302582       -0.0002110971        0.0002033525
  C        -0.0000111822        0.0000964040        0.0000123052
  C         0.0001443504       -0.0001288156        0.0000132657
  C        -0.0000859242        0.0000615596        0.0000649504
  C         0.0001365900       -0.0001106384        0.0003293533
  C        -0.0001059053       -0.0000158953       -0.0001165578
  C         0.0001069421        0.0000238236       -0.0002329241
  C        -0.0003898407        0.0000076269       -0.0000278285
  C        -0.0001127861        0.0001233157       -0.0000712167
  C         0.0002807140        0.0001468802        0.0000574851
  C         0.0000658280       -0.0001786188        0.0001091796
  C         0.0000063136        0.0000338135       -0.0000737076
  C        -0.0002467239       -0.0001050645        0.0000231338
  C        -0.0001488336        0.0000182882       -0.0000009368
  C        -0.0000176254        0.0001861099        0.0000442081
  C        -0.0000667841        0.0001393564        0.0002552358
  C         0.0003096403        0.0001886733        0.0003145687
  C         0.0000650286       -0.0000958061       -0.0001164206
  C         0.0002616308        0.0002010204       -0.0000537736
  C        -0.0000979049       -0.0000674187        0.0000448978
  C        -0.0002805821        0.0001189916       -0.0000156445
  C        -0.0001505845        0.0002528063        0.0001416226
  C        -0.0000103446       -0.0000016384        0.0000550794
  C        -0.0003092050        0.0000126462        0.0000566709
  C        -0.0000682745        0.0000130101       -0.0002624037
  C        -0.0000743375       -0.0001500406       -0.0000154252
  C        -0.0000569507       -0.0001167451       -0.0000364103
  C         0.0000198395       -0.0001022737        0.0000396890
  C        -0.0002515040       -0.0002488643       -0.0001026982
  C        -0.0000512177       -0.0001108542       -0.0000657552
  C         0.0001166507        0.0000939334       -0.0002429892
  C         0.0001548777        0.0002871688       -0.0000935526
  C        -0.0001636474       -0.0000795130       -0.0001149843
  C         0.0002027550       -0.0000848159        0.0000451584
  C         0.0000499418       -0.0000504081       -0.0000480973
  C         0.0001473066       -0.0000905674        0.0001758622
  C         0.0000766435        0.0004575307        0.0001123777
  C         0.0000514101        0.0001068135        0.0000104783
  C        -0.0001843879       -0.0000230319       -0.0002587052
  C        -0.0001576332       -0.0001609893       -0.0000883088
  C         0.0001419827        0.0000162541       -0.0000388516
  C         0.0002518812       -0.0000885159        0.0001930138
  C         0.0000144639        0.0000949365        0.0001959780
  C         0.0000676737        0.0000468205       -0.0000265826
  C        -0.0000786908        0.0001015724        0.0000716009
      61
 i =        5, time =        5.000, E =      -347.9144670904
 Li         0.0004204892       -0.0002553051       -0.0000807325
  C        -0.0000249249       -0.0000735731       -0.0000736793
  C        -0.0000240915       -0.0002716527       -0.0000688049
  C         0.0002596460       -0.0004111274        0.0000315325
  C         0.0001862529       -0.0002479518       -0.0000191940
  C         0.0001305102       -0.0000814480        0.0000952958
  C        -0.0000237206       -0.0000669706       -0.0000584200
  C        -0.0004078938       -0.0001575150       -0.0001440063
  C        -0.0002241052        0.0001034692       -0.0002267507
  C        -0.0001905808        0.0002815952       -0.0001044780
  C        -0.0000153651        0.0001869753       -0.0000634708
  C         0.0000878993       -0.0001866203        0.0001902457
  C        -0.0000271545       -0.0000259623       -0.0001263834
  C        -0.0001519463       -0.0001061715       -0.0000090460
  C         0.0000031075        0.0002035303        0.0000185068
  C         0.0002391987        0.0001870351        0.0000542860
  C         0.0001730010       -0.0001647753        0.0001901085
  C         0.0000026940        0.0000986558       -0.0000060560
  C         0.0001520831       -0.0001618177        0.0000458161
  C        -0.0000594936        0.0000249350        0.0000514693
  C         0.0001339774       -0.0001486579        0.0002746604
  C        -0.0000484545       -0.0000346076       -0.0001115333
  C         0.0000068168        0.0000331608       -0.0002638838
  C        -0.0002892245        0.0000372539       -0.0000296106
  C        -0.0000797297        0.0001050002       -0.0000356288
  C         0.0002380743        0.0001174101       -0.0000385913
  C         0.0000492322       -0.0001117634        0.0001255445
  C        -0.0000171339        0.0000426371       -0.0000901086
  C        -0.0001899982       -0.0001238334       -0.0000047841
  C        -0.0000945124        0.0000196110        0.0000273799
  C        -0.0000174094        0.0001404362        0.0000046246
  C        -0.0000217611        0.0001377397        0.0002648644
  C         0.0002435933        0.0001647079        0.0003268204
  C         0.0000519813       -0.0000558113       -0.0000940743
  C         0.0001890148        0.0002040352       -0.0000017125
  C        -0.0000113365       -0.0000155839        0.0000522373
  C        -0.0002328039        0.0001012605        0.0000179901
  C        -0.0001758913        0.0001891408        0.0001448006
  C        -0.0000237597        0.0000259592        0.0000733703
  C        -0.0002839039        0.0000217533        0.0000778408
  C        -0.0000956451        0.0000042287       -0.0002198101
  C        -0.0000617933       -0.0001116241        0.0000323034
  C        -0.0000382381       -0.0001226967       -0.0000208755
  C        -0.0000022297       -0.0000939262        0.0000582247
  C        -0.0002011495       -0.0001927782       -0.0001202907
  C        -0.0000487158       -0.0001079477       -0.0000161713
  C         0.0001181868        0.0001093323       -0.0001439764
  C         0.0001577437        0.0002674363       -0.0001270250
  C        -0.0000988606       -0.0000952309       -0.0001264004
  C         0.0002096319       -0.0000744631        0.0000341871
  C         0.0000319616       -0.0000609060       -0.0000605902
  C         0.0000996181       -0.0000414455        0.0001642461
  C         0.0000608096        0.0004428608        0.0000720867
  C         0.0000651377        0.0001346805       -0.0000029029
  C        -0.0001243204       -0.0000178875       -0.0002012762
  C        -0.0001500904       -0.0001408041       -0.0000940148
  C         0.0001114718        0.0000464939        0.0000074399
  C         0.0002010220       -0.0000813636        0.0001489678
  C         0.0000032826        0.0001225434        0.0001558957
  C         0.0000664389        0.0000915032        0.0000093731
  C        -0.0000577076        0.0000784516        0.0000124510
      61
 i =        6, time =        6.000, E =      -347.9094742573
 Li         0.0004179853       -0.0002546990       -0.0000798281
  C        -0.0000649649       -0.0000614619       -0.0000556873
  C        -0.0000034404       -0.0002978637       -0.0000222320
  C         0.0001952439       -0.0004230928       -0.0000034126
  C         0.0001123314       -0.0002696561       -0.0000279668
  C         0.0001267532       -0.0000616507        0.0000523451
  C        -0.0000424172       -0.0000352377       -0.0001381223
  C        -0.0004144830       -0.0001247301       -0.0001361812
  C        -0.0002062821        0.0000715682       -0.0002296454
  C        -0.0002200319        0.0002266893       -0.0000861659
  C        -0.0000040852        0.0001273036       -0.0000298096
  C         0.0000628267       -0.0002146998        0.0001552162
  C        -0.0000400772       -0.0000464827       -0.0000790280
  C        -0.0001477372       -0.0001131674       -0.0000677575
  C         0.0000176571        0.0001564108        0.0000216144
  C         0.0001769267        0.0002044684        0.0000458776
  C         0.0002130415       -0.0001172806        0.0001733808
  C         0.0000158089        0.0000986630       -0.0000214550
  C         0.0001595315       -0.0001918624        0.0000782962
  C        -0.0000305125       -0.0000115584        0.0000375183
  C         0.0001300194       -0.0001866384        0.0002152184
  C         0.0000097891       -0.0000541702       -0.0001060438
  C        -0.0000938625        0.0000410719       -0.0002916593
  C        -0.0001816555        0.0000666301       -0.0000282714
  C        -0.0000477020        0.0000869775        0.0000001567
  C         0.0001899369        0.0000862903       -0.0001373196
  C         0.0000332057       -0.0000424433        0.0001404597
  C        -0.0000417905        0.0000510324       -0.0001041916
  C        -0.0001275238       -0.0001394376       -0.0000324277
  C        -0.0000420673        0.0000211165        0.0000544807
  C        -0.0000166252        0.0000919736       -0.0000327841
  C         0.0000270521        0.0001347660        0.0002717087
  C         0.0001714172        0.0001388202        0.0003350358
  C         0.0000384433       -0.0000158842       -0.0000693249
  C         0.0001115950        0.0002039742        0.0000528484
  C         0.0000799677        0.0000362739        0.0000603380
  C        -0.0001809430        0.0000839262        0.0000516002
  C        -0.0002010962        0.0001210745        0.0001457503
  C        -0.0000392006        0.0000546903        0.0000903730
  C        -0.0002520221        0.0000307758        0.0001003140
  C        -0.0001213954       -0.0000050228       -0.0001732943
  C        -0.0000477473       -0.0000722814        0.0000804923
  C        -0.0000186971       -0.0001265823       -0.0000065461
  C        -0.0000257581       -0.0000856776        0.0000752135
  C        -0.0001475578       -0.0001314003       -0.0001360541
  C        -0.0000461560       -0.0001044446        0.0000333397
  C         0.0001202448        0.0001234929       -0.0000424141
  C         0.0001587011        0.0002418527       -0.0001595255
  C        -0.0000326194       -0.0001101448       -0.0001372333
  C         0.0002117680       -0.0000639815        0.0000222082
  C         0.0000156431       -0.0000685060       -0.0000729633
  C         0.0000471682        0.0000087071        0.0001516414
  C         0.0000447371        0.0004231304        0.0000289301
  C         0.0000791733        0.0001632933       -0.0000167890
  C        -0.0000625973       -0.0000126229       -0.0001410515
  C        -0.0001406405       -0.0001185854       -0.0000974353
  C         0.0000818898        0.0000773696        0.0000555124
  C         0.0001477620       -0.0000719283        0.0001008229
  C        -0.0000068371        0.0001474601        0.0001130815
  C         0.0000634019        0.0001356014        0.0000475992
  C        -0.0000339476        0.0000557978       -0.0000452029
      61
 i =        7, time =        7.000, E =      -347.9088620700
 Li         0.0004474877       -0.0002736564       -0.0000849955
  C        -0.0001103744       -0.0000528530       -0.0000397341
  C         0.0000175250       -0.0003449678        0.0000206922
  C         0.0001374109       -0.0004648360       -0.0000414050
  C         0.0000425892       -0.0003103612       -0.0000379013
  C         0.0001292799       -0.0000471725        0.0000128535
  C        -0.0000678443       -0.0000033961       -0.0002307101
  C        -0.0004459874       -0.0001000468       -0.0001370495
  C        -0.0002016203        0.0000416787       -0.0002477493
  C        -0.0002641080        0.0001815424       -0.0000752886
  C         0.0000062224        0.0000744697        0.0000031095
  C         0.0000392631       -0.0002578100        0.0001268762
  C        -0.0000575511       -0.0000722609       -0.0000332545
  C        -0.0001524891       -0.0001280167       -0.0001303413
  C         0.0000316615        0.0001200283        0.0000233550
  C         0.0001214183        0.0002349552        0.0000364994
  C         0.0002676119       -0.0000776606        0.0001647238
  C         0.0000302539        0.0001028095       -0.0000343963
  C         0.0001788259       -0.0002350711        0.0001160706
  C        -0.0000003378       -0.0000513743        0.0000260522
  C         0.0001350654       -0.0002387307        0.0001662078
  C         0.0000696481       -0.0000775866       -0.0001098152
  C        -0.0002003390        0.0000492998       -0.0003380051
  C        -0.0000790435        0.0001004725       -0.0000268747
  C        -0.0000189544        0.0000757274        0.0000360039