 DBCSR| CPU Multiplication driver                                           BLAS
 DBCSR| Multrec recursion limit                                              512
 DBCSR| Multiplication stack size                                           1000
 DBCSR| Maximum elements for images                                    UNLIMITED
 DBCSR| Multiplicative factor virtual images                                   1
 DBCSR| Use multiplication densification                                       T
 DBCSR| Multiplication size stacks                                             3
 DBCSR| Number of 3D layers                                               SINGLE
 DBCSR| Use MPI memory allocation                                              T
 DBCSR| Use RMA algorithm                                                      F
 DBCSR| Use Communication thread                                               T
 DBCSR| Communication thread load                                             87


  **** **** ******  **  PROGRAM STARTED AT               2020-11-17 14:03:01.756
 ***** ** ***  *** **   PROGRAM STARTED ON        cpn-u28-38.cbls.ccr.buffalo.ed
 **    ****   ******    PROGRAM STARTED BY                              bsmith24
 ***** **    ** ** **   PROGRAM PROCESS ID                                111393
  **** **  *******  **  PROGRAM STARTED IN /panfs/panfs.cbls.ccr.buffalo.edu/scr
                                           atch/grp-alexeyak/brendan/Tutorials_C
                                           P2K/tddft

 CP2K| version string:                                          CP2K version 7.1
 CP2K| source code revision number:                                  git:e635599
 CP2K| cp2kflags: fftw3 parallel mpi3 scalapack spglib                          
 CP2K| is freely available from                            https://www.cp2k.org/
 CP2K| Program compiled at                          Thu Sep 17 16:12:40 EDT 2020
 CP2K| Program compiled on                       srv-p22-12.cbls.ccr.buffalo.edu
 CP2K| Program compiled for                                                local
 CP2K| Data directory path    /panfs/panfs.cbls.ccr.buffalo.edu/scratch/grp-alex
 CP2K| Input file name                                   cp2k_input_template.inp

 GLOBAL| Force Environment number                                              1
 GLOBAL| Basis set file name                                        BASIS_MOLOPT
 GLOBAL| Potential file name                                           POTENTIAL
 GLOBAL| MM Potential file name                                     MM_POTENTIAL
 GLOBAL| Coordinate file name                                          coord.xyz
 GLOBAL| Method name                                                        CP2K
 GLOBAL| Project name                                                     c10h16
 GLOBAL| Preferred FFT library                                             FFTW3
 GLOBAL| Preferred diagonalization lib.                                       SL
 GLOBAL| Run type                                                         ENERGY
 GLOBAL| All-to-all communication in single precision                          F
 GLOBAL| FFTs using library dependent lengths                                  F
 GLOBAL| Global print level                                               MEDIUM
 GLOBAL| MPI I/O enabled                                                       T
 GLOBAL| Total number of message passing processes                            32
 GLOBAL| Number of threads for this process                                    1
 GLOBAL| This output is from process                                           0
 GLOBAL| CPU model name                 Intel(R) Xeon(R) Gold 6130 CPU @ 2.10GHz
 GLOBAL| CPUID                                                              1003

 MEMORY| system memory details [Kb]
 MEMORY|                        rank 0           min           max       average
 MEMORY| MemTotal            196317836     196317836     196317836     196317836
 MEMORY| MemFree             129257784     129257784     129257784     129257784
 MEMORY| Buffers                630680        630680        630680        630680
 MEMORY| Cached               62247448      62247448      62247448      62247448
 MEMORY| Slab                  1150444       1150444       1150444       1150444
 MEMORY| SReclaimable           893928        893928        893928        893928
 MEMORY| MemLikelyFree       193029840     193029840     193029840     193029840


 *** Fundamental physical constants (SI units) ***

 *** Literature: B. J. Mohr and B. N. Taylor,
 ***             CODATA recommended values of the fundamental physical
 ***             constants: 2006, Web Version 5.1
 ***             http://physics.nist.gov/constants

 Speed of light in vacuum [m/s]                             2.99792458000000E+08
 Magnetic constant or permeability of vacuum [N/A**2]       1.25663706143592E-06
 Electric constant or permittivity of vacuum [F/m]          8.85418781762039E-12
 Planck constant (h) [J*s]                                  6.62606896000000E-34
 Planck constant (h-bar) [J*s]                              1.05457162825177E-34
 Elementary charge [C]                                      1.60217648700000E-19
 Electron mass [kg]                                         9.10938215000000E-31
 Electron g factor [ ]                                     -2.00231930436220E+00
 Proton mass [kg]                                           1.67262163700000E-27
 Fine-structure constant                                    7.29735253760000E-03
 Rydberg constant [1/m]                                     1.09737315685270E+07
 Avogadro constant [1/mol]                                  6.02214179000000E+23
 Boltzmann constant [J/K]                                   1.38065040000000E-23
 Atomic mass unit [kg]                                      1.66053878200000E-27
 Bohr radius [m]                                            5.29177208590000E-11

 *** Conversion factors ***

 [u] -> [a.u.]                                              1.82288848426455E+03
 [Angstrom] -> [Bohr] = [a.u.]                              1.88972613288564E+00
 [a.u.] = [Bohr] -> [Angstrom]                              5.29177208590000E-01
 [a.u.] -> [s]                                              2.41888432650478E-17
 [a.u.] -> [fs]                                             2.41888432650478E-02
 [a.u.] -> [J]                                              4.35974393937059E-18
 [a.u.] -> [N]                                              8.23872205491840E-08
 [a.u.] -> [K]                                              3.15774647902944E+05
 [a.u.] -> [kJ/mol]                                         2.62549961709828E+03
 [a.u.] -> [kcal/mol]                                       6.27509468713739E+02
 [a.u.] -> [Pa]                                             2.94210107994716E+13
 [a.u.] -> [bar]                                            2.94210107994716E+08
 [a.u.] -> [atm]                                            2.90362800883016E+08
 [a.u.] -> [eV]                                             2.72113838565563E+01
 [a.u.] -> [Hz]                                             6.57968392072181E+15
 [a.u.] -> [1/cm] (wave numbers)                            2.19474631370540E+05
 [a.u./Bohr**2] -> [1/cm]                                   5.14048714338585E+03
 

 CELL_TOP| Volume [angstrom^3]:                                         3375.000
 CELL_TOP| Vector a [angstrom    15.000     0.000     0.000    |a| =      15.000
 CELL_TOP| Vector b [angstrom     0.000    15.000     0.000    |b| =      15.000
 CELL_TOP| Vector c [angstrom     0.000     0.000    15.000    |c| =      15.000
 CELL_TOP| Angle (b,c), alpha [degree]:                                   90.000
 CELL_TOP| Angle (a,c), beta  [degree]:                                   90.000
 CELL_TOP| Angle (a,b), gamma [degree]:                                   90.000
 CELL_TOP| Numerically orthorhombic:                                         YES

 GENERATE|  Preliminary Number of Bonds generated:                             0
 GENERATE|  Achieved consistency in connectivity generation.

 CELL| Volume [angstrom^3]:                                             3375.000
 CELL| Vector a [angstrom]:      15.000     0.000     0.000    |a| =      15.000
 CELL| Vector b [angstrom]:       0.000    15.000     0.000    |b| =      15.000
 CELL| Vector c [angstrom]:       0.000     0.000    15.000    |c| =      15.000
 CELL| Angle (b,c), alpha [degree]:                                       90.000
 CELL| Angle (a,c), beta  [degree]:                                       90.000
 CELL| Angle (a,b), gamma [degree]:                                       90.000
 CELL| Numerically orthorhombic:                                             YES

 CELL_REF| Volume [angstrom^3]:                                         3375.000
 CELL_REF| Vector a [angstrom    15.000     0.000     0.000    |a| =      15.000
 CELL_REF| Vector b [angstrom     0.000    15.000     0.000    |b| =      15.000
 CELL_REF| Vector c [angstrom     0.000     0.000    15.000    |c| =      15.000
 CELL_REF| Angle (b,c), alpha [degree]:                                   90.000
 CELL_REF| Angle (a,c), beta  [degree]:                                   90.000
 CELL_REF| Angle (a,b), gamma [degree]:                                   90.000
 CELL_REF| Numerically orthorhombic:                                         YES

 *******************************************************************************
 *******************************************************************************
 **                                                                           **
 **     #####                         ##              ##                      **
 **    ##   ##            ##          ##              ##                      **
 **   ##     ##                       ##            ######                    **
 **   ##     ##  ##   ##  ##   #####  ##  ##   ####   ##    #####    #####    **
 **   ##     ##  ##   ##  ##  ##      ## ##   ##      ##   ##   ##  ##   ##   **
 **   ##  ## ##  ##   ##  ##  ##      ####     ###    ##   ######   ######    **
 **    ##  ###   ##   ##  ##  ##      ## ##      ##   ##   ##       ##        **
 **     #######   #####   ##   #####  ##  ##  ####    ##    #####   ##        **
 **           ##                                                    ##        **
 **                                                                           **
 **                                                ... make the atoms dance   **
 **                                                                           **
 **            Copyright (C) by CP2K developers group (2000 - 2019)           **
 **                                                                           **
 *******************************************************************************

 DFT| Spin restricted Kohn-Sham (RKS) calculation                            RKS
 DFT| Multiplicity                                                             1
 DFT| Number of spin states                                                    1
 DFT| Charge                                                                   0
 DFT| Self-interaction correction (SIC)                                       NO
 DFT| Cutoffs: density                                              1.000000E-10
 DFT|          gradient                                             1.000000E-10
 DFT|          tau                                                  1.000000E-10
 DFT|          cutoff_smoothing_range                               0.000000E+00
 DFT| XC density smoothing                                                  NONE
 DFT| XC derivatives                                                          PW
 FUNCTIONAL| ROUTINE=NEW
 FUNCTIONAL| PBE:
 FUNCTIONAL| J.P.Perdew, K.Burke, M.Ernzerhof, Phys. Rev. Letter, vol. 77, n 18,
 FUNCTIONAL|  pp. 3865-3868, (1996){spin unpolarized}                           

 QS| Method:                                                                 GPW
 QS| Density plane wave grid type                        NON-SPHERICAL FULLSPACE
 QS| Number of grid levels:                                                    4
 QS| Density cutoff [a.u.]:                                                200.0
 QS| Multi grid cutoff [a.u.]: 1) grid level                               200.0
 QS|                           2) grid level                                66.7
 QS|                           3) grid level                                22.2
 QS|                           4) grid level                                 7.4
 QS| Grid level progression factor:                                          3.0
 QS| Relative density cutoff [a.u.]:                                        30.0
 QS| Consistent realspace mapping and integration 
 QS| Interaction thresholds: eps_pgf_orb:                                1.0E-08
 QS|                         eps_filter_matrix:                          0.0E+00
 QS|                         eps_core_charge:                            1.0E-18
 QS|                         eps_rho_gspace:                             1.0E-16
 QS|                         eps_rho_rspace:                             1.0E-16
 QS|                         eps_gvg_rspace:                             1.0E-08
 QS|                         eps_ppl:                                    1.0E-02
 QS|                         eps_ppnl:                                   1.0E-10


 ATOMIC KIND INFORMATION

  1. Atomic kind: C                                     Number of atoms:      10

     Orbital Basis Set                                           DZVP-MOLOPT-GTH

       Number of orbital shell sets:                                           1
       Number of orbital shells:                                               5
       Number of primitive Cartesian functions:                                7
       Number of Cartesian basis functions:                                   14
       Number of spherical basis functions:                                   13
       Norm type:                                                              2

       Normalised Cartesian orbitals:

                        Set   Shell   Orbital            Exponent    Coefficient

                          1       1    2s                6.132625      -0.263661
                                                         2.625196      -0.231112
                                                         1.045457       0.042712
                                                         0.478316       0.306085
                                                         0.178617       0.065483
                                                         0.075145       0.000568
                                                         0.030287       0.000417

                          1       2    3s                6.132625       0.131937
                                                         2.625196       0.414269
                                                         1.045457      -0.593590
                                                         0.478316       0.644922
                                                         0.178617       0.069203
                                                         0.075145      -0.145101
                                                         0.030287       0.008247

                          1       3    3px               6.132625       0.562677
                                                         2.625196       0.633910
                                                         1.045457       0.379157
                                                         0.478316       0.235193
                                                         0.178617       0.052379
                                                         0.075145       0.003677
                                                         0.030287       0.000105
                          1       3    3py               6.132625       0.562677
                                                         2.625196       0.633910
                                                         1.045457       0.379157
                                                         0.478316       0.235193
                                                         0.178617       0.052379
                                                         0.075145       0.003677
                                                         0.030287       0.000105
                          1       3    3pz               6.132625       0.562677
                                                         2.625196       0.633910
                                                         1.045457       0.379157
                                                         0.478316       0.235193
                                                         0.178617       0.052379
                                                         0.075145       0.003677
                                                         0.030287       0.000105

                          1       4    4px               6.132625      -0.472364
                                                         2.625196      -0.221326
                                                         1.045457      -0.481781
                                                         0.478316       0.135466
                                                         0.178617       0.072281
                                                         0.075145       0.024920
                                                         0.030287       0.002706
                          1       4    4py               6.132625      -0.472364
                                                         2.625196      -0.221326
                                                         1.045457      -0.481781
                                                         0.478316       0.135466
                                                         0.178617       0.072281
                                                         0.075145       0.024920
                                                         0.030287       0.002706
                          1       4    4pz               6.132625      -0.472364
                                                         2.625196      -0.221326
                                                         1.045457      -0.481781
                                                         0.478316       0.135466
                                                         0.178617       0.072281
                                                         0.075145       0.024920
                                                         0.030287       0.002706

                          1       5    4dx2              6.132625       0.874783
                                                         2.625196       0.375772
                                                         1.045457       0.653959
                                                         0.478316       0.191007
                                                         0.178617       0.018656
                                                         0.075145       0.003649
                                                         0.030287      -0.000011
                          1       5    4dxy              6.132625       1.515169
                                                         2.625196       0.650856
                                                         1.045457       1.132690
                                                         0.478316       0.330834
                                                         0.178617       0.032314
                                                         0.075145       0.006321
                                                         0.030287      -0.000019
                          1       5    4dxz              6.132625       1.515169
                                                         2.625196       0.650856
                                                         1.045457       1.132690
                                                         0.478316       0.330834
                                                         0.178617       0.032314
                                                         0.075145       0.006321
                                                         0.030287      -0.000019
                          1       5    4dy2              6.132625       0.874783
                                                         2.625196       0.375772
                                                         1.045457       0.653959
                                                         0.478316       0.191007
                                                         0.178617       0.018656
                                                         0.075145       0.003649
                                                         0.030287      -0.000011
                          1       5    4dyz              6.132625       1.515169
                                                         2.625196       0.650856
                                                         1.045457       1.132690
                                                         0.478316       0.330834
                                                         0.178617       0.032314
                                                         0.075145       0.006321
                                                         0.030287      -0.000019
                          1       5    4dz2              6.132625       0.874783
                                                         2.625196       0.375772
                                                         1.045457       0.653959
                                                         0.478316       0.191007
                                                         0.178617       0.018656
                                                         0.075145       0.003649
                                                         0.030287      -0.000011

     GTH Potential information for                                    GTH-PBE-q4

       Description:                       Goedecker-Teter-Hutter pseudopotential
                                           Goedecker et al., PRB 54, 1703 (1996)
                                          Hartwigsen et al., PRB 58, 3641 (1998)
                                                      Krack, TCA 114, 145 (2005)

       Gaussian exponent of the core charge distribution:               4.364419
       Electronic configuration (s p d ...):                               2   2

       Parameters of the local part of the GTH pseudopotential:

                          rloc        C1          C2          C3          C4
                        0.338471   -8.803674    1.339211

       Parameters of the non-local part of the GTH pseudopotential:

                   l      r(l)      h(i,j,l)

                   0    0.302576    9.622487
                   1    0.291507

  2. Atomic kind: H                                     Number of atoms:      16

     Orbital Basis Set                                           DZVP-MOLOPT-GTH

       Number of orbital shell sets:                                           1
       Number of orbital shells:                                               3
       Number of primitive Cartesian functions:                                7
       Number of Cartesian basis functions:                                    5
       Number of spherical basis functions:                                    5
       Norm type:                                                              2

       Normalised Cartesian orbitals:

                        Set   Shell   Orbital            Exponent    Coefficient

                          1       1    2s               11.478000       0.129129
                                                         3.700759       0.177012
                                                         1.446884       0.141285
                                                         0.716815       0.245670
                                                         0.247919       0.094768
                                                         0.066918       0.004062
                                                         0.021708      -0.000053

                          1       2    3s               11.478000      -0.079256
                                                         3.700759      -0.152992
                                                         1.446884       0.015066
                                                         0.716815      -0.331234
                                                         0.247919       0.210690
                                                         0.066918       0.058630
                                                         0.021708      -0.003429

                          1       3    3px              11.478000       0.325290
                                                         3.700759       0.187466
                                                         1.446884       0.443300
                                                         0.716815       0.267738
                                                         0.247919       0.088285
                                                         0.066918       0.019092
                                                         0.021708       0.000629
                          1       3    3py              11.478000       0.325290
                                                         3.700759       0.187466
                                                         1.446884       0.443300
                                                         0.716815       0.267738
                                                         0.247919       0.088285
                                                         0.066918       0.019092
                                                         0.021708       0.000629
                          1       3    3pz              11.478000       0.325290
                                                         3.700759       0.187466
                                                         1.446884       0.443300
                                                         0.716815       0.267738
                                                         0.247919       0.088285
                                                         0.066918       0.019092
                                                         0.021708       0.000629

     GTH Potential information for                                    GTH-PBE-q1

       Description:                       Goedecker-Teter-Hutter pseudopotential
                                           Goedecker et al., PRB 54, 1703 (1996)
                                          Hartwigsen et al., PRB 58, 3641 (1998)
                                                      Krack, TCA 114, 145 (2005)

       Gaussian exponent of the core charge distribution:              12.500000
       Electronic configuration (s p d ...):                                   1

       Parameters of the local part of the GTH pseudopotential:

                          rloc        C1          C2          C3          C4
                        0.200000   -4.178900    0.724463


 MOLECULE KIND INFORMATION


 All atoms are their own molecule, skipping detailed information


 TOTAL NUMBERS AND MAXIMUM NUMBERS

  Total number of            - Atomic kinds:                                   2
                             - Atoms:                                         26
                             - Shell sets:                                    26
                             - Shells:                                        98
                             - Primitive Cartesian functions:                182
                             - Cartesian basis functions:                    220
                             - Spherical basis functions:                    210

  Maximum angular momentum of- Orbital basis functions:                        2
                             - Local part of the GTH pseudopotential:          2
                             - Non-local part of the GTH pseudopotential:      0


 MODULE QUICKSTEP:  ATOMIC COORDINATES IN angstrom

  Atom  Kind  Element       X           Y           Z          Z(eff)       Mass

       1     1 C    6    9.178580    5.928680    6.784230      4.00      12.0107
       2     1 C    6    8.288780    6.827330    5.895700      4.00      12.0107
       3     1 C    6    9.184490    7.712870    5.000010      4.00      12.0107
       4     1 C    6   10.068360    6.815530    4.104270      4.00      12.0107
       5     1 C    6   10.956860    5.916830    4.994050      4.00      12.0107
       6     1 C    6    9.160840    4.144480    5.000060      4.00      12.0107
       7     1 C    6   10.062460    5.030020    5.889820      4.00      12.0107
       8     1 C    6    7.388480    5.940480    5.005880      4.00      12.0107
       9     1 C    6    8.271070    5.041840    4.110200      4.00      12.0107
      10     1 C    6    9.166750    5.928710    3.215770      4.00      12.0107
      11     2 H    1    8.541821    5.298140    7.443030      1.00       1.0079
      12     2 H    1    9.819710    6.559260    7.438760      1.00       1.0079
      13     2 H    1    7.653340    7.473351    6.539620      1.00       1.0079
      14     2 H    1    8.552010    8.373790    4.367380      1.00       1.0079
      15     2 H    1    9.825700    8.365280    5.632710      1.00       1.0079
      16     2 H    1   10.712270    7.453100    3.460340      1.00       1.0079
      17     2 H    1   11.619880    6.547200    5.626580      1.00       1.0079
      18     2 H    1   11.607130    5.277700    4.357070      1.00       1.0079
      19     2 H    1    9.789130    3.483580    4.363250      1.00       1.0079
      20     2 H    1    8.523830    3.492070    5.636970      1.00       1.0079
      21     2 H    1   10.702130    4.383980    6.529520      1.00       1.0079
      22     2 H    1    6.729700    5.310070    5.642790      1.00       1.0079
      23     2 H    1    6.733950    6.579590    4.373250      1.00       1.0079
      24     2 H    1    7.622920    4.404290    3.470520      1.00       1.0079
      25     2 H    1    9.795130    5.289790    2.556990      1.00       1.0079
      26     2 H    1    8.534019    6.567690    2.561230      1.00       1.0079




 SCF PARAMETERS         Density guess:                                   RESTART
                        --------------------------------------------------------
                        max_scf:                                             300
                        max_scf_history:                                       0
                        max_diis:                                              4
                        --------------------------------------------------------
                        eps_scf:                                        1.00E-06
                        eps_scf_history:                                0.00E+00
                        eps_diis:                                       1.00E-01
                        eps_eigval:                                     1.00E-05
                        --------------------------------------------------------
                        level_shift [a.u.]:                                 0.00
                        added MOs                                        20    0
                        --------------------------------------------------------
                        Mixing method:                            BROYDEN_MIXING
                                                charge density mixing in g-space
                        --------------------------------------------------------
                        No outer SCF

 PW_GRID| Information for grid number                                          1
 PW_GRID| Grid distributed over                                    32 processors
 PW_GRID| Real space group dimensions                                    32    1
 PW_GRID| the grid is blocked:                                                NO
 PW_GRID| Cutoff [a.u.]                                                    200.0
 PW_GRID| spherical cutoff:                                                   NO
 PW_GRID|   Bounds   1            -96      95                Points:         192
 PW_GRID|   Bounds   2            -96      95                Points:         192
 PW_GRID|   Bounds   3            -96      95                Points:         192
 PW_GRID| Volume element (a.u.^3)  0.3218E-02     Volume (a.u.^3)     22775.6292
 PW_GRID| Grid span                                                    FULLSPACE
 PW_GRID|   Distribution                         Average         Max         Min
 PW_GRID|   G-Vectors                           221184.0      221184      221184
 PW_GRID|   G-Rays                                1152.0        1152        1152
 PW_GRID|   Real Space Points                   221184.0      221184      221184

 PW_GRID| Information for grid number                                          2
 PW_GRID| Number of the reference grid                                         1
 PW_GRID| Grid distributed over                                    32 processors
 PW_GRID| Real space group dimensions                                    32    1
 PW_GRID| the grid is blocked:                                                NO
 PW_GRID| Cutoff [a.u.]                                                     66.7
 PW_GRID| spherical cutoff:                                                   NO
 PW_GRID|   Bounds   1            -54      53                Points:         108
 PW_GRID|   Bounds   2            -54      53                Points:         108
 PW_GRID|   Bounds   3            -54      53                Points:         108
 PW_GRID| Volume element (a.u.^3)  0.1808E-01     Volume (a.u.^3)     22775.6292
 PW_GRID| Grid span                                                    FULLSPACE
 PW_GRID|   Distribution                         Average         Max         Min
 PW_GRID|   G-Vectors                            39366.0       39420       39312
 PW_GRID|   G-Rays                                 364.5         365         364
 PW_GRID|   Real Space Points                    39366.0       46656       34992

 PW_GRID| Information for grid number                                          3
 PW_GRID| Number of the reference grid                                         1
 PW_GRID| Grid distributed over                                    32 processors
 PW_GRID| Real space group dimensions                                    32    1
 PW_GRID| the grid is blocked:                                                NO
 PW_GRID| Cutoff [a.u.]                                                     22.2
 PW_GRID| spherical cutoff:                                                   NO
 PW_GRID|   Bounds   1            -32      31                Points:          64
 PW_GRID|   Bounds   2            -32      31                Points:          64
 PW_GRID|   Bounds   3            -32      31                Points:          64
 PW_GRID| Volume element (a.u.^3)  0.8688E-01     Volume (a.u.^3)     22775.6292
 PW_GRID| Grid span                                                    FULLSPACE
 PW_GRID|   Distribution                         Average         Max         Min
 PW_GRID|   G-Vectors                             8192.0        8256        8128
 PW_GRID|   G-Rays                                 128.0         129         127
 PW_GRID|   Real Space Points                     8192.0        8192        8192

 PW_GRID| Information for grid number                                          4
 PW_GRID| Number of the reference grid                                         1
 PW_GRID| Grid distributed over                                    32 processors
 PW_GRID| Real space group dimensions                                    32    1
 PW_GRID| the grid is blocked:                                                NO
 PW_GRID| Cutoff [a.u.]                                                      7.4
 PW_GRID| spherical cutoff:                                                   NO
 PW_GRID|   Bounds   1            -18      17                Points:          36
 PW_GRID|   Bounds   2            -18      17                Points:          36
 PW_GRID|   Bounds   3            -18      17                Points:          36
 PW_GRID| Volume element (a.u.^3)  0.4882         Volume (a.u.^3)     22775.6292
 PW_GRID| Grid span                                                    FULLSPACE
 PW_GRID|   Distribution                         Average         Max         Min
 PW_GRID|   G-Vectors                             1458.0        1548        1368
 PW_GRID|   G-Rays                                  40.5          43          38
 PW_GRID|   Real Space Points                     1458.0        2592        1296

 POISSON| Solver                                                         WAVELET
 POISSON| Wavelet| Scaling function                                           40
 POISSON| Periodicity                                                       NONE

 RS_GRID| Information for grid number                                          1
 RS_GRID|   Bounds   1            -96      95                Points:         192
 RS_GRID|   Bounds   2            -96      95                Points:         192
 RS_GRID|   Bounds   3            -96      95                Points:         192
 RS_GRID| Real space distribution over                                  4 groups
 RS_GRID| Real space distribution along direction                              2
 RS_GRID| Border size                                                         30
 RS_GRID| Real space distribution over                                  8 groups
 RS_GRID| Real space distribution along direction                              3
 RS_GRID| Border size                                                         30
 RS_GRID|   Distribution                         Average         Max         Min
 RS_GRID|   Planes                                 108.0         108         108
 RS_GRID|   Distribution                         Average         Max         Min
 RS_GRID|   Planes                                  84.0          84          84

 RS_GRID| Information for grid number                                          2
 RS_GRID|   Bounds   1            -54      53                Points:         108
 RS_GRID|   Bounds   2            -54      53                Points:         108
 RS_GRID|   Bounds   3            -54      53                Points:         108
 RS_GRID| Real space fully replicated
 RS_GRID| Group size                                                           1

 RS_GRID| Information for grid number                                          3
 RS_GRID|   Bounds   1            -32      31                Points:          64
 RS_GRID|   Bounds   2            -32      31                Points:          64
 RS_GRID|   Bounds   3            -32      31                Points:          64
 RS_GRID| Real space fully replicated
 RS_GRID| Group size                                                           1

 RS_GRID| Information for grid number                                          4
 RS_GRID|   Bounds   1            -18      17                Points:          36
 RS_GRID|   Bounds   2            -18      17                Points:          36
 RS_GRID|   Bounds   3            -18      17                Points:          36
 RS_GRID| Real space fully replicated
 RS_GRID| Group size                                                           1

 Number of electrons:                                                         56
 Number of occupied orbitals:                                                 28
 Number of molecular orbitals:                                                48

 Number of orbital functions:                                                210
 Number of independent orbital functions:                                    210

 Extrapolation method: initial_guess

 *** WARNING in qs_initial_guess.F:280 :: User requested to restart the   ***
 *** wavefunction from the file named: RESTART.wfn. This file does not    ***
 *** exist. Please check the existence of the file or change properly the ***
 *** value of the keyword WFN_RESTART_FILE_NAME. Calculation continues    ***
 *** using ATOMIC GUESS.                                                  ***


 Atomic guess: The first density matrix is obtained in terms of atomic orbitals
               and electronic configurations assigned to each atomic kind

 Guess for atomic kind: C

 Electronic structure
    Total number of core electrons                                          2.00
    Total number of valence electrons                                       4.00
    Total number of electrons                                               6.00
    Multiplicity                                                   not specified
    S   [  2.00] 2.00
    P      2.00


 *******************************************************************************
                  Iteration          Convergence                     Energy [au]
 *******************************************************************************
                          1        0.427148E-01                  -5.227811253113
                          2        0.218489E-01                  -5.228672519307
                          3        0.666851E-04                  -5.228969180638
                          4        0.102221E-07                  -5.228969183366

 Energy components [Hartree]           Total Energy ::           -5.228969183366
                                        Band Energy ::           -1.112012594120
                                     Kinetic Energy ::            3.667652954033
                                   Potential Energy ::           -8.896622137400
                                      Virial (-V/T) ::            2.425699009394
                                        Core Energy ::           -8.354438099696
                                          XC Energy ::           -1.430507543452
                                     Coulomb Energy ::            4.555976459783
                       Total Pseudopotential Energy ::          -12.054077133824
                       Local Pseudopotential Energy ::          -12.576063923110
                    Nonlocal Pseudopotential Energy ::            0.521986789286
                                        Confinement ::            0.319860800937

 Orbital energies  State     L     Occupation   Energy[a.u.]          Energy[eV]

                       1     0          2.000      -0.418938          -11.399891

                       1     1          2.000      -0.137068           -3.729809


 Total Electron Density at R=0:                                         0.015856

 Guess for atomic kind: H

 Electronic structure
    Total number of core electrons                                          0.00
    Total number of valence electrons                                       1.00
    Total number of electrons                                               1.00
    Multiplicity                                                   not specified
    S      1.00


 *******************************************************************************
                  Iteration          Convergence                     Energy [au]
 *******************************************************************************
                          1        0.437545E-02                  -0.424159432110
                          2        0.531356E-03                  -0.424178438213
                          3        0.259176E-06                  -0.424178722480

 Energy components [Hartree]           Total Energy ::           -0.424178722480
                                        Band Energy ::           -0.199015229016
                                     Kinetic Energy ::            0.464007633961
                                   Potential Energy ::           -0.888186356441
                                      Virial (-V/T) ::            1.914163240935
                                        Core Energy ::           -0.479160803564
                                          XC Energy ::           -0.244352904054
                                     Coulomb Energy ::            0.299334985138
                       Total Pseudopotential Energy ::           -0.962295316385
                       Local Pseudopotential Energy ::           -0.962295316385
                    Nonlocal Pseudopotential Energy ::            0.000000000000
                                        Confinement ::            0.191268788606

 Orbital energies  State     L     Occupation   Energy[a.u.]          Energy[eV]

                       1     0          1.000      -0.199015           -5.415480


 Total Electron Density at R=0:                                         0.242907
 Re-scaling the density matrix to get the right number of electrons
                  # Electrons              Trace(P)               Scaling factor
                           56                56.000                        1.000


 SCF WAVEFUNCTION OPTIMIZATION

  Step     Update method      Time    Convergence         Total energy    Change
  ------------------------------------------------------------------------------
     1 NoMix/Diag. 0.50E+00    1.6     1.30756337       -64.9324568951 -6.49E+01
     2 Broy./Diag. 0.50E+00    1.3     0.07603760       -61.4576883831  3.47E+00
     3 Broy./Diag. 0.50E+00    1.1     0.01970298       -65.2934506959 -3.84E+00
     4 Broy./Diag. 0.50E+00    1.2     0.00363722       -66.2547827153 -9.61E-01
     5 Broy./Diag. 0.50E+00    1.2     0.00202051       -66.3374545642 -8.27E-02
     6 Broy./Diag. 0.50E+00    1.3     0.00268021       -66.3447502682 -7.30E-03
     7 Broy./Diag. 0.50E+00    1.1     0.00143692       -66.3944182043 -4.97E-02
     8 Broy./Diag. 0.50E+00    1.2     0.00075302       -66.4244652314 -3.00E-02
     9 Broy./Diag. 0.50E+00    1.3     0.00059538       -66.4312490951 -6.78E-03
    10 Broy./Diag. 0.50E+00    1.2     0.00052249       -66.4288554656  2.39E-03
    11 Broy./Diag. 0.50E+00    1.2     0.00010214       -66.4300495917 -1.19E-03
    12 Broy./Diag. 0.50E+00    1.1     0.00007097       -66.4315051883 -1.46E-03
    13 Broy./Diag. 0.50E+00    1.1     0.00004938       -66.4322096235 -7.04E-04
    14 Broy./Diag. 0.50E+00    1.2     0.00002132       -66.4317294752  4.80E-04
    15 Broy./Diag. 0.50E+00    1.2     0.00000797       -66.4314607859  2.69E-04
    16 Broy./Diag. 0.50E+00    1.2     0.00001382       -66.4314572709  3.51E-06
    17 Broy./Diag. 0.50E+00    1.3     0.00000144       -66.4315070704 -4.98E-05
    18 Broy./Diag. 0.50E+00    1.2     0.00000137       -66.4315205195 -1.34E-05
    19 Broy./Diag. 0.50E+00    1.2     0.00000099       -66.4315185575  1.96E-06

  *** SCF run converged in    19 steps ***


  Electronic density on regular grids:        -56.0000000000       -0.0000000000
  Core density on regular grids:               56.0000000000        0.0000000000
  Total charge density on r-space grids:       -0.0000000000
  Total charge density g-space grids:          -0.0000000000

  Overlap energy of the core charge distribution:               0.00000281534105
  Self energy of the core charge distribution:               -155.91766260956237
  Core Hamiltonian energy:                                     49.77763195663933
  Hartree energy:                                              63.00653208252255
  Exchange-correlation energy:                                -23.29802280244561

  Total energy:                                               -66.43151855750506

   Calculate PDOS at iteration step                                  0
  Reached convergence in            1  iterations 

   Compute          162    additional unoccupied KS orbitals

              ---- PDOS: start iteration on the KS states --- 

 !-----------------------------------------------------------------------------!
                     Mulliken Population Analysis

 #  Atom  Element  Kind  Atomic population                           Net charge
       1     C        1          4.121258                             -0.121258
       2     C        1          4.091218                             -0.091218
       3     C        1          4.121262                             -0.121262
       4     C        1          4.091213                             -0.091213
       5     C        1          4.121256                             -0.121256
       6     C        1          4.121249                             -0.121249
       7     C        1          4.091221                             -0.091221
       8     C        1          4.121253                             -0.121253
       9     C        1          4.091222                             -0.091222
      10     C        1          4.121263                             -0.121263
      11     H        2          0.933916                              0.066084
      12     H        2          0.933917                              0.066083
      13     H        2          0.925127                              0.074873
      14     H        2          0.933923                              0.066077
      15     H        2          0.933916                              0.066084
      16     H        2          0.925137                              0.074863
      17     H        2          0.933917                              0.066083
      18     H        2          0.933925                              0.066075
      19     H        2          0.933928                              0.066072
      20     H        2          0.933916                              0.066084
      21     H        2          0.925128                              0.074872
      22     H        2          0.933918                              0.066082
      23     H        2          0.933925                              0.066075
      24     H        2          0.925133                              0.074867
      25     H        2          0.933932                              0.066068
      26     H        2          0.933927                              0.066073
 # Total charge                             56.000000                 -0.000000

 !-----------------------------------------------------------------------------!

 !-----------------------------------------------------------------------------!
                           Hirshfeld Charges

  #Atom  Element  Kind  Ref Charge     Population                    Net charge
      1       C      1       4.000          4.873                        -0.873
      2       C      1       4.000          4.423                        -0.423
      3       C      1       4.000          4.873                        -0.873
      4       C      1       4.000          4.423                        -0.423
      5       C      1       4.000          4.873                        -0.873
      6       C      1       4.000          4.873                        -0.873
      7       C      1       4.000          4.423                        -0.423
      8       C      1       4.000          4.873                        -0.873
      9       C      1       4.000          4.423                        -0.423
     10       C      1       4.000          4.873                        -0.873
     11       H      2       1.000          0.564                         0.436
     12       H      2       1.000          0.564                         0.436
     13       H      2       1.000          0.567                         0.433
     14       H      2       1.000          0.564                         0.436
     15       H      2       1.000          0.564                         0.436
     16       H      2       1.000          0.567                         0.433
     17       H      2       1.000          0.564                         0.436
     18       H      2       1.000          0.564                         0.436
     19       H      2       1.000          0.564                         0.436
     20       H      2       1.000          0.564                         0.436
     21       H      2       1.000          0.567                         0.433
     22       H      2       1.000          0.564                         0.436
     23       H      2       1.000          0.564                         0.436
     24       H      2       1.000          0.567                         0.433
     25       H      2       1.000          0.564                         0.436
     26       H      2       1.000          0.564                         0.436

  Total Charge                                                            0.034
 !-----------------------------------------------------------------------------!
  
  Eigenvalues of the occupied subspace spin            1
 ---------------------------------------------
      -0.78429252      -0.68725439      -0.68725366      -0.68725222
      -0.59076005      -0.59075892      -0.51400371      -0.51400249
      -0.51400046      -0.46130215      -0.39713463      -0.39392210
      -0.39392107      -0.39391811      -0.35408793      -0.35408741
      -0.35408503      -0.33843742      -0.33843656      -0.33843564
      -0.28169428      -0.28169281      -0.27804502      -0.27804286
      -0.27804165      -0.23669514      -0.23669280      -0.23669123
 Fermi Energy [eV] :   -6.440696
  
  Lowest eigenvalues of the unoccupied subspace spin            1
 ---------------------------------------------
       0.06639602       0.10783648       0.10783869       0.10783939
       0.12142615       0.12142745       0.12142946       0.12676430
       0.12676630       0.13819888       0.17444322       0.17444458
       0.17444584       0.18987696       0.18988117       0.18988343
       0.20423969       0.20424177       0.20424261       0.22245303

 PW_GRID| Information for grid number                                          5
 PW_GRID| Grid distributed over                                    32 processors
 PW_GRID| Real space group dimensions                                    32    1
 PW_GRID| the grid is blocked:                                                NO
 PW_GRID| Cutoff [a.u.]                                                    200.0
 PW_GRID| spherical cutoff:                                                   NO
 PW_GRID|   Bounds   1            -96      95                Points:         192
 PW_GRID|   Bounds   2            -96      95                Points:         192
 PW_GRID|   Bounds   3            -96      95                Points:         192
 PW_GRID| Volume element (a.u.^3)  0.3218E-02     Volume (a.u.^3)     22775.6292
 PW_GRID| Grid span                                                    FULLSPACE
 PW_GRID|   Distribution                         Average         Max         Min
 PW_GRID|   G-Vectors                           221184.0      221184      221184
 PW_GRID|   G-Rays                                1152.0        1152        1152
 PW_GRID|   Real Space Points                   221184.0      221184      221184

 PW_GRID| Information for grid number                                          6
 PW_GRID| Number of the reference grid                                         5
 PW_GRID| Grid distributed over                                    32 processors
 PW_GRID| Real space group dimensions                                    32    1
 PW_GRID| the grid is blocked:                                                NO
 PW_GRID| Cutoff [a.u.]                                                     66.7
 PW_GRID| spherical cutoff:                                                   NO
 PW_GRID|   Bounds   1            -54      53                Points:         108
 PW_GRID|   Bounds   2            -54      53                Points:         108
 PW_GRID|   Bounds   3            -54      53                Points:         108
 PW_GRID| Volume element (a.u.^3)  0.1808E-01     Volume (a.u.^3)     22775.6292
 PW_GRID| Grid span                                                    FULLSPACE
 PW_GRID|   Distribution                         Average         Max         Min
 PW_GRID|   G-Vectors                            39366.0       39420       39312
 PW_GRID|   G-Rays                                 364.5         365         364
 PW_GRID|   Real Space Points                    39366.0       46656       34992

 PW_GRID| Information for grid number                                          7
 PW_GRID| Number of the reference grid                                         5
 PW_GRID| Grid distributed over                                    32 processors
 PW_GRID| Real space group dimensions                                    32    1
 PW_GRID| the grid is blocked:                                                NO
 PW_GRID| Cutoff [a.u.]                                                     22.2
 PW_GRID| spherical cutoff:                                                   NO
 PW_GRID|   Bounds   1            -32      31                Points:          64
 PW_GRID|   Bounds   2            -32      31                Points:          64
 PW_GRID|   Bounds   3            -32      31                Points:          64
 PW_GRID| Volume element (a.u.^3)  0.8688E-01     Volume (a.u.^3)     22775.6292
 PW_GRID| Grid span                                                    FULLSPACE
 PW_GRID|   Distribution                         Average         Max         Min
 PW_GRID|   G-Vectors                             8192.0        8256        8128
 PW_GRID|   G-Rays                                 128.0         129         127
 PW_GRID|   Real Space Points                     8192.0        8192        8192

 PW_GRID| Information for grid number                                          8
 PW_GRID| Number of the reference grid                                         5
 PW_GRID| Grid distributed over                                    32 processors
 PW_GRID| Real space group dimensions                                    32    1
 PW_GRID| the grid is blocked:                                                NO
 PW_GRID| Cutoff [a.u.]                                                      7.4
 PW_GRID| spherical cutoff:                                                   NO
 PW_GRID|   Bounds   1            -18      17                Points:          36
 PW_GRID|   Bounds   2            -18      17                Points:          36
 PW_GRID|   Bounds   3            -18      17                Points:          36
 PW_GRID| Volume element (a.u.^3)  0.4882         Volume (a.u.^3)     22775.6292
 PW_GRID| Grid span                                                    FULLSPACE
 PW_GRID|   Distribution                         Average         Max         Min
 PW_GRID|   G-Vectors                             1458.0        1548        1368
 PW_GRID|   G-Rays                                  40.5          43          38
 PW_GRID|   Real Space Points                     1458.0        2592        1296

 POISSON| Solver                                                         WAVELET
 POISSON| Wavelet| Scaling function                                           40
 POISSON| Periodicity                                                       NONE

 RS_GRID| Information for grid number                                          5
 RS_GRID|   Bounds   1            -96      95                Points:         192
 RS_GRID|   Bounds   2            -96      95                Points:         192
 RS_GRID|   Bounds   3            -96      95                Points:         192
 RS_GRID| Real space distribution over                                  4 groups
 RS_GRID| Real space distribution along direction                              2
 RS_GRID| Border size                                                         30
 RS_GRID| Real space distribution over                                  8 groups
 RS_GRID| Real space distribution along direction                              3
 RS_GRID| Border size                                                         30
 RS_GRID|   Distribution                         Average         Max         Min
 RS_GRID|   Planes                                 108.0         108         108
 RS_GRID|   Distribution                         Average         Max         Min
 RS_GRID|   Planes                                  84.0          84          84

 RS_GRID| Information for grid number                                          6
 RS_GRID|   Bounds   1            -54      53                Points:         108
 RS_GRID|   Bounds   2            -54      53                Points:         108
 RS_GRID|   Bounds   3            -54      53                Points:         108
 RS_GRID| Real space fully replicated
 RS_GRID| Group size                                                           1

 RS_GRID| Information for grid number                                          7
 RS_GRID|   Bounds   1            -32      31                Points:          64
 RS_GRID|   Bounds   2            -32      31                Points:          64
 RS_GRID|   Bounds   3            -32      31                Points:          64
 RS_GRID| Real space fully replicated
 RS_GRID| Group size                                                           1

 RS_GRID| Information for grid number                                          8
 RS_GRID|   Bounds   1            -18      17                Points:          36
 RS_GRID|   Bounds   2            -18      17                Points:          36
 RS_GRID|   Bounds   3            -18      17                Points:          36
 RS_GRID| Real space fully replicated
 RS_GRID| Group size                                                           1

 *** WARNING in qs_tddfpt2_methods.F:3679 :: User requested to restart the ***
 *** TDDFPT wave functions from the file 'RESTART.tdwfn' which does not    ***
 *** exist. Guess wave functions will be constructed using Kohn-Sham       ***
 *** orbitals.                                                             ***


                     TDDFPT initial guess
 ------------------------------------------------------------
     State       Occupied    ->    Virtual        Excitation
     number       orbital          orbital        energy (eV)
 ------------------------------------------------------------
        1           28               29               8.24742
        2           27               29               8.24747
        3           26               29               8.24753
        4           25               29               9.37263
        5           24               29               9.37266
        6           23               29               9.37272
        7           28               30               9.37508
        8           27               30               9.37512
        9           28               31               9.37514
       10           28               32               9.37515

 Number of active states:                        5096

 TDDFPT WAVEFUNCTION OPTIMIZATION

     Step     Time     Convergence     Conv. states
 --------------------------------------------------

    State    Exc. energy (eV)      Convergence (eV)
        1       8.4385917             1.9117E-01
        2       8.4395666             1.9210E-01
        3       8.4412737             1.9374E-01
        4       9.4047426             3.2117E-02
        5       9.4528263             8.0168E-02
        6       9.4818333             1.0912E-01
        7       9.5105068             1.3543E-01
        8       9.5228270             1.4771E-01
        9       9.5946256             2.1949E-01
       10       9.7217902             3.4664E-01

        1     11.1      1.2739E-02              0

    State    Exc. energy (eV)      Convergence (eV)
        1       8.3690968            -6.9495E-02
        2       8.3692103            -7.0356E-02
        3       8.3698314            -7.1442E-02
        4       9.3996336            -5.1090E-03
        5       9.4394957            -1.3331E-02
        6       9.4513524            -3.0481E-02
        7       9.4554077            -5.5099E-02
        8       9.4750603            -4.7767E-02
        9       9.5163204            -7.8305E-02
       10       9.5433753            -1.7841E-01

        2     10.2      6.5566E-03              0

    State    Exc. energy (eV)      Convergence (eV)
        1       8.3673693            -1.7275E-03
        2       8.3673850            -1.8253E-03
        3       8.3675295            -2.3019E-03
        4       9.3955085            -4.1251E-03
        5       9.4240057            -1.5490E-02
        6       9.4433285            -8.0239E-03
        7       9.4529853            -2.4224E-03
        8       9.4551229            -1.9937E-02
        9       9.4596464            -5.6674E-02
       10       9.4760045            -6.7371E-02

        3     10.2      2.4758E-03              0

    State    Exc. energy (eV)      Convergence (eV)
        1       8.3672179            -1.5141E-04
        2       8.3672604            -1.2457E-04
        3       8.3673282            -2.0125E-04
        4       9.3894040            -6.1045E-03
        5       9.4175658            -6.4399E-03
        6       9.4203962            -2.2932E-02
        7       9.4527964            -1.8890E-04
        8       9.4528599            -2.2629E-03
        9       9.4530330            -6.6134E-03
       10       9.4545373            -2.1467E-02

        4     10.1      8.4275E-04              0

    State    Exc. energy (eV)      Convergence (eV)
        1       8.3672100            -7.9182E-06
        2       8.3672551            -5.2660E-06
        3       8.3673193            -8.8725E-06
        4       9.3892731            -1.3096E-04
        5       9.4010238            -1.6542E-02
        6       9.4087076            -1.1689E-02
        7       9.4512417            -1.5547E-03
        8       9.4527046            -1.5534E-04
        9       9.4527599            -2.7307E-04
       10       9.4527993            -1.7379E-03

        5     10.1      6.0791E-04              3

    State    Exc. energy (eV)      Convergence (eV)
        1       8.3672095            -5.0895E-07
        2       8.3672551            -8.1839E-08
        3       8.3673190            -3.3472E-07
        4       9.3892687            -4.3372E-06
        5       9.3924030            -8.6208E-03
        6       9.3987601            -9.9475E-03
        7       9.4510280            -2.1368E-04
        8       9.4526367            -6.7924E-05
        9       9.4527418            -1.8163E-05
       10       9.4527958            -3.5723E-06

        6     10.3      3.6556E-04              5

    State    Exc. energy (eV)      Convergence (eV)
        1       8.3672094            -1.1825E-08
        2       8.3672551            -2.4618E-09
        3       8.3673190            -9.2477E-09
        4       9.3892685            -1.9320E-07
        5       9.3894446            -2.9584E-03
        6       9.3909493            -7.8108E-03
        7       9.4510242            -3.8348E-06
        8       9.4510998            -1.5368E-03
        9       9.4527258            -1.6004E-05
       10       9.4527513            -4.4430E-05

        7     10.2      2.8704E-04              5

    State    Exc. energy (eV)      Convergence (eV)
        1       8.3672094            -1.5272E-10
        2       8.3672551            -4.3180E-11
        3       8.3673190            -1.4627E-10
        4       9.3892676            -9.6819E-07
        5       9.3892939            -1.5076E-04
        6       9.3893580            -1.5913E-03
        7       9.4510236            -6.3242E-07
        8       9.4510337            -6.6098E-05
        9       9.4527236            -2.1861E-06
       10       9.4527499            -1.4717E-06

        8     10.2      5.8478E-05              7

    State    Exc. energy (eV)      Convergence (eV)
        1       8.3672094            -1.3519E-12
        2       8.3672551            -3.2930E-13
        3       8.3673190            -1.2673E-12
        4       9.3892673            -2.6232E-07
        5       9.3892918            -2.1069E-06
        6       9.3893400            -1.8018E-05
        7       9.4510235            -6.6780E-08
        8       9.4510328            -9.0705E-07
        9       9.4527235            -3.3013E-08
       10       9.4527499            -1.9504E-08

        9     10.3      6.6213E-07              9

    State    Exc. energy (eV)      Convergence (eV)
        1       8.3672094            -1.0574E-14
        2       8.3672551             0.0000E+00
        3       8.3673190            -1.3595E-14
        4       9.3892673            -3.1866E-09
        5       9.3892917            -2.5412E-08
        6       9.3893398            -1.7473E-07
        7       9.4510235            -5.2144E-10
        8       9.4510328            -6.2679E-09
        9       9.4527235            -2.3548E-10
       10       9.4527499            -1.4190E-10

       10     10.2      6.4211E-09             10
 ---------- Restart Davidson iterations -----------

    State    Exc. energy (eV)      Convergence (eV)
        1       8.3672094             9.0632E-15
        2       8.3672551             4.5316E-15
        3       8.3673190             1.2084E-14
        4       9.3892673             1.3595E-14
        5       9.3892917             7.7037E-14
        6       9.3893398            -6.1932E-14
        7       9.4510235             6.0421E-15
        8       9.4510328             3.1721E-14
        9       9.4527235             1.3595E-14
       10       9.4527499            -1.5105E-15

       11     10.1      2.8311E-15             10

 *** TDDFPT run converged in 11 iteration(s) ***

 R-TDDFPT states of multiplicity 1

         State    Excitation        Transition dipole (a.u.)        Oscillator
         number   energy (eV)       x           y           z     strength (a.u.)
         ------------------------------------------------------------------------
 TDDFPT|      1       8.36721   1.4912E-01 -9.5971E-02  1.1008E-01   8.93079E-03
 TDDFPT|      2       8.36726  -9.2473E-04  1.5667E-01  1.3792E-01   8.93163E-03
 TDDFPT|      3       8.36732   1.4601E-01  9.8969E-02 -1.1154E-01   8.92853E-03
 TDDFPT|      4       9.38927  -6.1625E-05  3.9973E-05 -3.3588E-05   1.50064E-09
 TDDFPT|      5       9.38929  -6.9521E-06  3.7421E-05 -5.3934E-05   1.00238E-09
 TDDFPT|      6       9.38934   2.6979E-05 -1.5347E-05 -3.3754E-05   4.83703E-10
 TDDFPT|      7       9.45102   1.5494E-05  2.3109E-04  1.3203E-04   1.64568E-08
 TDDFPT|      8       9.45103  -6.5963E-05 -7.5158E-05  1.1094E-04   5.16529E-09
 TDDFPT|      9       9.45272  -5.8264E-05  3.9003E-05 -5.2870E-05   1.78583E-09
 TDDFPT|     10       9.45275   1.2756E-04  5.2925E-06 -2.7646E-05   3.95158E-09

 Excitation analysis

   State        Occupied         Virtual        Excitation
   number        orbital         orbital        amplitude
 ---------------------------------------------------------
        1
                   28              29             0.995358
        2
                   27              29            -0.994485
        3
                   26              29             0.994699
        4
                   27              30            -0.584568
                   28              31            -0.471572
                   28              32            -0.366959
                   25              29            -0.305139
                   24              29             0.259509
                   23              29             0.247859
                   27              32            -0.187335
                   28              30             0.176651
                   26              30             0.074998
                   27              31            -0.071511
        5
                   26              30             0.593605
                   28              32            -0.463052
                   28              31             0.400160
                   25              29            -0.359423
                   24              29            -0.220117
                   23              29            -0.211027
                   26              32             0.168768
                   28              30             0.107547
                   27              30             0.086512
        6
                   26              31             0.523446
                   27              32             0.510976
                   23              29             0.340348
                   27              31            -0.333966
                   24              29            -0.326218
                   26              32             0.317047
                   27              30            -0.116571
                   26              30            -0.115191
        7
                   27              30            -0.519498
                   21              29            -0.463334
                   26              31            -0.401997
                   27              32             0.321324
                   28              31             0.315832
                   28              32             0.274975
                   22              29            -0.188958
                   26              30             0.134196
                   26              32            -0.103927
                   27              31            -0.092495
        8
                   22              29             0.463564
                   26              30            -0.451619
                   28              32            -0.442095
                   28              31             0.342836
                   27              31            -0.324845
                   26              32            -0.319012
                   21              29            -0.188872
                   27              32            -0.099023
                   28              30            -0.088295
                   26              31            -0.070036
        9
                   25              29             0.852796
                   28              32            -0.306343
                   26              30             0.233178
                   27              30            -0.204806
                   24              29            -0.151523
                   28              34            -0.106922
                   28              30             0.106281
                   27              32            -0.100754
                   27              35             0.069910
                   26              35            -0.069652
                   26              32             0.051424
       10
                   24              29             0.824470
                   28              31             0.292171
                   23              29             0.218760
                   27              32             0.177704
                   26              30             0.168446
                   27              30             0.165678
                   25              29             0.158414
                   26              31             0.134750
                   26              32             0.132747
                   28              33            -0.088621
                   27              35            -0.084308
                   28              32            -0.073004
                   26              33            -0.067995
                   26              35            -0.053102
                   28              35             0.052124
                   27              31            -0.051459

 -------------------------------------------------------------------------------
 ----                             MULTIGRID INFO                            ----
 -------------------------------------------------------------------------------
 count for grid        1:         210292          cutoff [a.u.]          200.00
 count for grid        2:          98270          cutoff [a.u.]           66.67
 count for grid        3:          63719          cutoff [a.u.]           22.22
 count for grid        4:          51370          cutoff [a.u.]            7.41
 total gridlevel count  :         423651

 ENERGY| Total FORCE_EVAL ( QS ) energy (a.u.):              -66.431518557505058


 -------------------------------------------------------------------------------
 -                                                                             -
 -                                DBCSR STATISTICS                             -
 -                                                                             -
 -------------------------------------------------------------------------------
 COUNTER                                    TOTAL       BLAS       SMM       ACC
 flops    16 x     2 x    16                 1024     100.0%      0.0%      0.0%
 flops    16 x     2 x    32                 2048     100.0%      0.0%      0.0%
 flops    32 x     2 x    16                 2048     100.0%      0.0%      0.0%
 flops    32 x     2 x    18                 2304     100.0%      0.0%      0.0%
 flops     5 x     2 x     2                 2560     100.0%      0.0%      0.0%
 flops    16 x     2 x    23                 2944     100.0%      0.0%      0.0%
 flops    52 x     2 x    16                 3328     100.0%      0.0%      0.0%
 flops    16 x     2 x    26                 3328     100.0%      0.0%      0.0%
 flops    56 x     2 x    16                 3584     100.0%      0.0%      0.0%
 flops    50 x     2 x    18                 3600     100.0%      0.0%      0.0%
 flops    52 x     2 x    18                 3744     100.0%      0.0%      0.0%
 flops    56 x     2 x    18                 4032     100.0%      0.0%      0.0%
 flops    13 x     2 x     2                 4160     100.0%      0.0%      0.0%
 flops    34 x     2 x    23                 6256     100.0%      0.0%      0.0%
 flops    51 x     2 x    16                 6528     100.0%      0.0%      0.0%
 flops    34 x     2 x    26                 7072     100.0%      0.0%      0.0%
 flops    16 x     2 x    28                 7168     100.0%      0.0%      0.0%
 flops    51 x     2 x    18                 7344     100.0%      0.0%      0.0%
 flops    50 x     2 x    23                 9200     100.0%      0.0%      0.0%
 flops    64 x     2 x    18                 9216     100.0%      0.0%      0.0%
 flops    50 x     2 x    26                10400     100.0%      0.0%      0.0%
 flops    34 x     2 x    28                15232     100.0%      0.0%      0.0%
 flops    50 x     2 x    28                22400     100.0%      0.0%      0.0%
 flops    32 x     2 x    23                23552     100.0%      0.0%      0.0%
 flops    16 x    16 x    23                23552     100.0%      0.0%      0.0%
 flops    32 x     2 x    26                26624     100.0%      0.0%      0.0%
 flops    16 x    16 x    26                26624     100.0%      0.0%      0.0%
 flops    32 x     2 x    32                28672     100.0%      0.0%      0.0%
 flops    64 x     2 x    23                35328     100.0%      0.0%      0.0%
 flops    50 x     2 x    32                38400     100.0%      0.0%      0.0%
 flops    64 x     2 x    26                39936     100.0%      0.0%      0.0%
 flops    52 x     2 x    32                46592     100.0%      0.0%      0.0%
 flops    32 x    16 x    23                47104     100.0%      0.0%      0.0%
 flops    56 x     2 x    32                50176     100.0%      0.0%      0.0%
 flops    32 x    18 x    23                52992     100.0%      0.0%      0.0%
 flops    32 x    16 x    26                53248     100.0%      0.0%      0.0%
 flops    32 x     2 x    28                57344     100.0%      0.0%      0.0%
 flops    16 x    16 x    28                57344     100.0%      0.0%      0.0%
 flops    32 x    18 x    26                59904     100.0%      0.0%      0.0%
 flops    16 x    32 x    16                81920     100.0%      0.0%      0.0%
 flops    50 x    18 x    23                82800     100.0%      0.0%      0.0%
 flops    64 x     2 x    28                86016     100.0%      0.0%      0.0%
 flops    51 x     2 x    32                91392     100.0%      0.0%      0.0%
 flops    50 x    18 x    26                93600     100.0%      0.0%      0.0%
 flops    64 x     2 x    32                98304     100.0%      0.0%      0.0%
 flops     5 x     2 x     5               102400     100.0%      0.0%      0.0%
 flops    32 x    16 x    28               114688     100.0%      0.0%      0.0%
 flops    32 x    18 x    28               129024     100.0%      0.0%      0.0%
 flops    32 x    32 x    16               163840     100.0%      0.0%      0.0%
 flops    16 x    32 x    32               163840     100.0%      0.0%      0.0%
 flops    13 x     2 x     5               166400     100.0%      0.0%      0.0%
 flops     5 x     2 x    13               166400     100.0%      0.0%      0.0%
 flops    32 x    32 x    18               184320     100.0%      0.0%      0.0%
 flops    50 x    18 x    28               201600     100.0%      0.0%      0.0%
 flops     5 x    16 x     5               204800     100.0%      0.0%      0.0%
 flops    64 x    18 x    23               211968     100.0%      0.0%      0.0%
 flops    64 x    18 x    26               239616     100.0%      0.0%      0.0%
 flops    52 x    32 x    16               266240     100.0%      0.0%      0.0%
 flops    13 x     2 x    13               270400     100.0%      0.0%      0.0%
 flops    16 x    32 x    23               282624     100.0%      0.0%      0.0%
 flops    56 x    32 x    16               286720     100.0%      0.0%      0.0%
 flops    50 x    32 x    18               288000     100.0%      0.0%      0.0%
 flops    52 x    32 x    18               299520     100.0%      0.0%      0.0%
 flops    16 x    32 x    26               319488     100.0%      0.0%      0.0%
 flops    56 x    32 x    18               322560     100.0%      0.0%      0.0%
 flops    13 x    16 x     5               332800     100.0%      0.0%      0.0%
 flops     5 x    16 x    13               332800     100.0%      0.0%      0.0%
 flops    34 x    32 x    23               500480     100.0%      0.0%      0.0%
 flops    64 x    18 x    28               516096     100.0%      0.0%      0.0%
 flops    51 x    32 x    16               522240     100.0%      0.0%      0.0%
 flops    13 x    16 x    13               540800     100.0%      0.0%      0.0%
 flops     5 x    22 x     5               563200     100.0%      0.0%      0.0%
 flops    34 x    32 x    26               565760     100.0%      0.0%      0.0%
 flops    51 x    32 x    18               587520     100.0%      0.0%      0.0%
 flops    16 x    32 x    28               688128     100.0%      0.0%      0.0%
 flops    64 x    32 x    18               737280     100.0%      0.0%      0.0%
 flops    13 x    22 x     5               915200     100.0%      0.0%      0.0%
 flops     5 x    22 x    13               915200     100.0%      0.0%      0.0%
 flops    34 x    32 x    28              1218560     100.0%      0.0%      0.0%
 flops    13 x    22 x    13              1487200     100.0%      0.0%      0.0%
 flops    50 x    32 x    23              1619200     100.0%      0.0%      0.0%
 flops    50 x    32 x    26              1830400     100.0%      0.0%      0.0%
 flops     5 x     5 x    16              2067200     100.0%      0.0%      0.0%
 flops    32 x    32 x    32              2293760     100.0%      0.0%      0.0%
 flops    32 x    32 x    23              2543616     100.0%      0.0%      0.0%
 flops    32 x    32 x    26              2875392     100.0%      0.0%      0.0%
 flops    50 x    32 x    32              3072000     100.0%      0.0%      0.0%
 flops    13 x     5 x    16              3161600     100.0%      0.0%      0.0%
 flops     5 x    13 x    16              3161600     100.0%      0.0%      0.0%
 flops     5 x    32 x    32              3276800     100.0%      0.0%      0.0%
 flops    52 x    32 x    32              3727360     100.0%      0.0%      0.0%
 flops    50 x    32 x    28              3942400     100.0%      0.0%      0.0%
 flops    56 x    32 x    32              4014080     100.0%      0.0%      0.0%
 flops     5 x     5 x    32              4134400     100.0%      0.0%      0.0%
 flops    64 x    32 x    23              5087232     100.0%      0.0%      0.0%
 flops    13 x    32 x    32              5324800     100.0%      0.0%      0.0%
 flops    13 x    13 x    16              5651360     100.0%      0.0%      0.0%
 flops    64 x    32 x    26              5750784     100.0%      0.0%      0.0%
 flops    32 x    32 x    28              6193152     100.0%      0.0%      0.0%
 flops    13 x     5 x    32              6323200     100.0%      0.0%      0.0%
 flops     5 x    13 x    32              6323200     100.0%      0.0%      0.0%
 flops    51 x    32 x    32              7311360     100.0%      0.0%      0.0%
 flops    64 x    32 x    32              7864320     100.0%      0.0%      0.0%
 flops    13 x    13 x    32             11302720     100.0%      0.0%      0.0%
 flops    64 x    32 x    28             12386304     100.0%      0.0%      0.0%
 flops     5 x    32 x     5             12697600     100.0%      0.0%      0.0%
 flops    13 x    32 x     5             20633600     100.0%      0.0%      0.0%
 flops     5 x    32 x    13             20633600     100.0%      0.0%      0.0%
 flops    13 x    32 x    13             33529600     100.0%      0.0%      0.0%
 flops     5 x    28 x     5            155545600     100.0%      0.0%      0.0%
 flops    13 x    28 x     5            252761600     100.0%      0.0%      0.0%
 flops     5 x    28 x    13            252761600     100.0%      0.0%      0.0%
 flops    13 x    28 x    13            410737600     100.0%      0.0%      0.0%
 flops inhomo. stacks                           0       0.0%      0.0%      0.0%
 flops total                         1.296688E+09     100.0%      0.0%      0.0%
 flops max/rank                    297.295072E+06     100.0%      0.0%      0.0%
 matmuls inhomo. stacks                         0       0.0%      0.0%      0.0%
 matmuls total                             334178     100.0%      0.0%      0.0%
 number of processed stacks                 51178     100.0%      0.0%      0.0%
 average stack size                                     6.5       0.0       0.0
 marketing flops                     1.359022E+09
 -------------------------------------------------------------------------------
 # multiplications                            475
 max memory usage/rank             389.468160E+06
 # max total images/rank                        2
 # max 3D layers                                1
 # MPI messages exchanged                  197600
 MPI messages size (bytes):
  total size                         1.198601E+09
  min size                           0.000000E+00
  max size                          16.384000E+03
  average size                       6.065795E+03
 MPI breakdown and total messages size (bytes):
             size <=      128               82421                      480
       128 < size <=     8192               14575                 85214112
      8192 < size <=    32768              100604               1113386400
     32768 < size <=   131072                   0                        0
    131072 < size <=  4194304                   0                        0
   4194304 < size <= 16777216                   0                        0
  16777216 < size                               0                        0
 -------------------------------------------------------------------------------

 *** WARNING in dbcsr_mm.F:295 :: Using a non-square number of MPI ranks ***
 *** might lead to poor performance. Used ranks: 32 Suggested: 36 64     ***

 -------------------------------------------------------------------------------
 -                                                                             -
 -                      DBCSR MESSAGE PASSING PERFORMANCE                      -
 -                                                                             -
 -------------------------------------------------------------------------------
 ROUTINE             CALLS      AVE VOLUME [Bytes]
 MP_Group              473
 MP_Bcast              114                     12.
 MP_Allreduce         1780                     10.
 MP_Alltoall         11544                   5892.
 MP_Wait             30400
 MP_ISend            15174                   3638.
 MP_IRecv            15170                   3582.
 MP_Memory           24670
 -------------------------------------------------------------------------------

 MEMORY| Estimated peak process memory [MiB]                                 372

 -------------------------------------------------------------------------------
 ----                             MULTIGRID INFO                            ----
 -------------------------------------------------------------------------------
 count for grid        1:         210292          cutoff [a.u.]          200.00
 count for grid        2:          98270          cutoff [a.u.]           66.67
 count for grid        3:          63719          cutoff [a.u.]           22.22
 count for grid        4:          51370          cutoff [a.u.]            7.41
 total gridlevel count  :         423651

 -------------------------------------------------------------------------------
 -                                                                             -
 -                         MESSAGE PASSING PERFORMANCE                         -
 -                                                                             -
 -------------------------------------------------------------------------------

 ROUTINE             CALLS      AVE VOLUME [Bytes]
 MP_Group                8
 MP_Bcast              128                2882217.
 MP_Allreduce         6331                    327.
 MP_Sync                41
 MP_Alltoall          3508                8874453.
 MP_ISendRecv        24180                 153173.
 MP_Wait             35570
 MP_comm_split          33
 MP_ISend             9994                 366700.
 MP_IRecv            10338                 354498.
 MP_Recv               127                   6905.
 -------------------------------------------------------------------------------


 -------------------------------------------------------------------------------
 -                                                                             -
 -                           R E F E R E N C E S                               -
 -                                                                             -
 -------------------------------------------------------------------------------
 
 CP2K version 7.1, the CP2K developers group (2019).
 CP2K is freely available from https://www.cp2k.org/ .

 Schuett, Ole; Messmer, Peter; Hutter, Juerg; VandeVondele, Joost. 
 Electronic Structure Calculations on Graphics Processing Units, John
 Wiley & Sons, Ltd, 173-190 (2016). 
 GPU-Accelerated Sparse Matrix-Matrix Multiplication for
 Linear Scaling Density Functional Theory.
 https://dx.doi.org/10.1002/9781118670712.ch8

 Borstnik, U; VandeVondele, J; Weber, V; Hutter, J. 
 PARALLEL COMPUTING, 40 (5-6), 47-58 (2014). 
 Sparse matrix multiplication: The distributed block-compressed sparse
 row library.
 https://dx.doi.org/10.1016/j.parco.2014.03.012

 Hutter, J; Iannuzzi, M; Schiffmann, F; VandeVondele, J. 
 WIREs Comput Mol Sci., 4 (1), 15-25 (2014). 
 CP2K: atomistic simulations of condensed matter systems.
 https://dx.doi.org/10.1002/wcms.1159

 VandeVondele, J; Hutter, J. 
 JOURNAL OF CHEMICAL PHYSICS, 127 (11), 114105 (2007). 
 Gaussian basis sets for accurate calculations on molecular systems in
 gas and condensed phases.
 https://dx.doi.org/10.1063/1.2770708

 Genovese, L; Deutsch, T; Goedecker, S. 
 JOURNAL OF CHEMICAL PHYSICS, 127 (5), 054704 (2007). 
 Efficient and accurate three-dimensional Poisson solver for surface
 problems.
 https://dx.doi.org/10.1063/1.2754685

 Genovese, L; Deutsch, T; Neelov, A; Goedecker, S; Beylkin, G. 
 JOURNAL OF CHEMICAL PHYSICS, 125 (7), 074105 (2006). 
 Efficient solution of Poisson's equation with free boundary conditions.
 https://dx.doi.org/10.1063/1.2335442

 Krack, M. 
 THEORETICAL CHEMISTRY ACCOUNTS, 114 (1-3), 145-152 (2005). 
 Pseudopotentials for H to Kr optimized for gradient-corrected
 exchange-correlation functionals.
 https://dx.doi.org/10.1007/s00214-005-0655-y

 VandeVondele, J; Krack, M; Mohamed, F; Parrinello, M; Chassaing, T;
 Hutter, J. COMPUTER PHYSICS COMMUNICATIONS, 167 (2), 103-128 (2005). 
 QUICKSTEP: Fast and accurate density functional calculations using a
 mixed Gaussian and plane waves approach.
 https://dx.doi.org/10.1016/j.cpc.2004.12.014

 Frigo, M; Johnson, SG. 
 PROCEEDINGS OF THE IEEE, 93 (2), 216-231 (2005). 
 The design and implementation of FFTW3.
 https://dx.doi.org/10.1109/JPROC.2004.840301

 Iannuzzi, M; Chassaing, T; Wallman, T; Hutter, J. 
 CHIMIA, 59 (7-8), 499-503 (2005). 
 Ground and excited state density functional calculations with the
 Gaussian and augmented-plane-wave method.
 https://dx.doi.org/10.2533/000942905777676164

 VandeVondele, J; Hutter, J. 
 JOURNAL OF CHEMICAL PHYSICS, 118 (10), 4365-4369 (2003). 
 An efficient orbital transformation method for electronic structure
 calculations.
 https://dx.doi.org/10.1063/1.1543154

 Hartwigsen, C; Goedecker, S; Hutter, J. 
 PHYSICAL REVIEW B, 58 (7), 3641-3662 (1998). 
 Relativistic separable dual-space Gaussian pseudopotentials from H to Rn.
 https://dx.doi.org/10.1103/PhysRevB.58.3641

 Lippert, G; Hutter, J; Parrinello, M. 
 MOLECULAR PHYSICS, 92 (3), 477-487 (1997). 
 A hybrid Gaussian and plane wave density functional scheme.
 https://dx.doi.org/10.1080/002689797170220

 Perdew, JP; Burke, K; Ernzerhof, M. 
 PHYSICAL REVIEW LETTERS, 77 (18), 3865-3868 (1996). 
 Generalized gradient approximation made simple.
 https://dx.doi.org/10.1103/PhysRevLett.77.3865

 Goedecker, S; Teter, M; Hutter, J. 
 PHYSICAL REVIEW B, 54 (3), 1703-1710 (1996). 
 Separable dual-space Gaussian pseudopotentials.
 https://dx.doi.org/10.1103/PhysRevB.54.1703


 -------------------------------------------------------------------------------
 -                                                                             -
 -                                T I M I N G                                  -
 -                                                                             -
 -------------------------------------------------------------------------------
 SUBROUTINE                       CALLS  ASD         SELF TIME        TOTAL TIME
                                MAXIMUM       AVERAGE  MAXIMUM  AVERAGE  MAXIMUM
 CP2K                                 1  1.0    0.065    0.072  138.595  138.596
 qs_energies                          1  2.0    0.001    0.001  138.122  138.124
 qs_energies_properties               1  3.0    0.000    0.000  113.789  113.790
 tddfpt                               1  4.0    0.001    0.001  113.789  113.790
 tddfpt_davidson_solver               2  5.0    0.001    0.007  112.956  112.956
 tddfpt_compute_Aop_evects           11  6.0    0.003    0.003  112.279  112.279
 pw_transfer                       2704  9.1    0.176    0.222   57.299   57.482
 fft_wrap_pw1pw2                   2704 10.1    0.027    0.034   57.123   57.310
 fft_wrap_pw1pw2_200               1924 10.9    4.286    4.530   55.354   55.560
 fft3d_ps                          2704 12.1   28.911   29.505   43.852   44.123
 qs_rho_update_rho                  131  6.7    0.001    0.001   38.351   38.352
 calculate_rho_elec                 131  7.7    6.611   24.294   38.350   38.351
 density_rs2pw                      131  8.7    0.007    0.007   30.410   33.764
 tddfpt_apply_xc                    110  7.0    0.168    0.170   33.349   33.382
 rs_pw_transfer                    1043  9.5    0.012    0.014   29.287   32.665
 integrate_v_rspace                 129  7.3    4.950   18.797   31.000   31.053
 scf_env_do_scf                       1  3.0    0.000    0.000   23.463   23.472
 scf_env_do_scf_inner_loop           19  4.0    0.002    0.013   23.463   23.472
 rs_pw_transfer_RS2PW_200           133 10.6    2.041    2.444   19.656   23.020
 mp_waitany                        9994 11.5   18.565   22.055   18.565   22.055
 xc_calc_2nd_deriv                  110  8.0    1.771    1.818   21.515   21.524
 pw_poisson_solve                   129  8.0    0.794    0.823   20.334   20.389
 tddfpt_apply_coulomb               110  7.0    0.002    0.002   19.948   19.958
 mp_alltoall_d11v                  5464 10.3   14.463   16.907   14.463   16.907
 rs_distribute_matrix               260  8.5    0.010    0.051   13.973   16.402
 qs_ks_update_qs_env                 19  5.0    0.000    0.000   15.812   15.815
 rebuild_ks_matrix                   19  6.0    0.000    0.000   15.783   15.785
 qs_ks_build_kohn_sham_matrix        19  7.0    0.003    0.003   15.783   15.785
 potential_pw2rs                    129  8.3    0.015    0.015   12.131   12.174
 ps_wavelet_solve                   129  9.0    6.835    7.930    9.484    9.547
 mp_alltoall_z22v                  2704 14.1    8.645    9.458    8.645    9.458
 x_to_yz                           1533 12.9    4.053    4.199    8.959    9.363
 mp_alltoall_d54                    129 10.0    1.863    7.296    1.863    7.296
 qs_vxc_create                       19  8.0    0.001    0.001    6.707    6.717
 xc_vxc_pw_create                    19  9.0    0.068    0.074    6.707    6.716
 yz_to_x                           1171 13.4    2.186    2.281    5.925    6.479
 rs_pw_transfer_PW2RS_200           130 10.3    3.274    3.327    4.999    5.050
 pw_scatter_p                      1533 11.9    4.804    5.006    4.804    5.006
 sum_up_and_integrate                19  8.0    0.014    0.016    4.785    4.787
 xc_rho_set_and_dset_create          20  9.8    0.030    0.031    4.228    4.407
 pw_gather_p                       1171 12.4    4.056    4.207    4.056    4.207
 -------------------------------------------------------------------------------

 The number of warnings for this run is : 3
 
 -------------------------------------------------------------------------------
  **** **** ******  **  PROGRAM ENDED AT                 2020-11-17 14:05:21.744
 ***** ** ***  *** **   PROGRAM RAN ON            cpn-u28-38.cbls.ccr.buffalo.ed
 **    ****   ******    PROGRAM RAN BY                                  bsmith24
 ***** **    ** ** **   PROGRAM PROCESS ID                                111393
  **** **  *******  **  PROGRAM STOPPED IN /panfs/panfs.cbls.ccr.buffalo.edu/scr
                                           atch/grp-alexeyak/brendan/Tutorials_C
                                           P2K/tddft
