      26
 i =        0, time =        0.000, E =       -66.4315096695
  C         9.1785800000        5.9286800000        6.7842300000
  C         8.2887800000        6.8273300000        5.8957000000
  C         9.1844900000        7.7128700000        5.0000100000
  C        10.0683600000        6.8155300000        4.1042700000
  C        10.9568600000        5.9168300000        4.9940500000
  C         9.1608400000        4.1444800000        5.0000600000
  C        10.0624600000        5.0300200000        5.8898200000
  C         7.3884800000        5.9404800000        5.0058800000
  C         8.2710700000        5.0418400000        4.1102000000
  C         9.1667500000        5.9287100000        3.2157700000
  H         8.5418210000        5.2981400000        7.4430300000
  H         9.8197100000        6.5592600000        7.4387600000
  H         7.6533400000        7.4733510000        6.5396200000
  H         8.5520100000        8.3737900000        4.3673800000
  H         9.8257000000        8.3652800000        5.6327100000
  H        10.7122700000        7.4531000000        3.4603400000
  H        11.6198800000        6.5472000000        5.6265800000
  H        11.6071300000        5.2777000000        4.3570700000
  H         9.7891300000        3.4835800000        4.3632500000
  H         8.5238300000        3.4920700000        5.6369700000
  H        10.7021300000        4.3839800000        6.5295200000
  H         6.7297000000        5.3100700000        5.6427900000
  H         6.7339500000        6.5795900000        4.3732500000
  H         7.6229200000        4.4042900000        3.4705200000
  H         9.7951300000        5.2897900000        2.5569900000
  H         8.5340190000        6.5676900000        2.5612300000
      26
 i =        1, time =        1.000, E =       -66.4289363011
  C         9.1840416816        5.9253945097        6.7828569095
  C         8.2898647699        6.8264292726        5.8934410694
  C         9.1815104782        7.7108279504        4.9954918666
  C        10.0758373492        6.8100939875        4.1071274228
  C        10.9637288905        5.9144275900        4.9950436528
  C         9.1623269078        4.1422155149        5.0058062591
  C        10.0612893404        5.0278076614        5.8933778556
  C         7.3806614284        5.9362851719        5.0023818223
  C         8.2647915562        5.0467836904        4.1058960991
  C         9.1646258334        5.9383388981        3.2126954977
  H         8.5353195719        5.3249815240        7.4326658758
  H         9.8288313028        6.5546879289        7.4572024153
  H         7.6532493603        7.4793986604        6.5212494609
  H         8.5412250687        8.3708676494        4.3822739346
  H         9.8218337692        8.3927652515        5.6328356143
  H        10.7398523711        7.4625871312        3.4659183149
  H        11.6169629021        6.5256184830        5.6428325706
  H        11.6006139067        5.2859847173        4.3639310815
  H         9.7958702043        3.4857561568        4.3613399102
  H         8.5137085828        3.5073602383        5.6437541656
  H        10.7092211674        4.3841348033        6.5602367948
  H         6.7122754107        5.3124134581        5.6358288784
  H         6.7555927622        6.5803124748        4.3658980106
  H         7.5808286468        4.4023546485        3.4739084340
  H         9.7772352429        5.3038889440        2.5483712081
  H         8.5560999808        6.5830780271        2.5817283205
      26
 i =        2, time =        2.000, E =       -66.4238662539
  C         9.1894304128        5.9227161864        6.7816231883
  C         8.2909002877        6.8255712686        5.8912838135
  C         9.1789659693        7.7090970668        4.9914519038
  C        10.0833205764        6.8053277655        4.1096455471
  C        10.9700174277        5.9121091510        4.9962769535
  C         9.1636977278        4.1400581891        5.0111108026
  C        10.0605471221        5.0253839873        5.8970954318
  C         7.3733588487        5.9322723911        4.9991851236
  C         8.2584794772        5.0511445411        4.1015872499
  C         9.1627819082        5.9473455114        3.2100699688
  H         8.5289487580        5.3491431683        7.4239261526
  H         9.8341433153        6.5471635624        7.4711728092
  H         7.6541426208        7.4840679904        6.5034857403
  H         8.5318486227        8.3674118336        4.3961062391
  H         9.8139683293        8.4144272666        5.6288881053
  H        10.7618894471        7.4674341320        3.4748159550
  H        11.6142666995        6.5049076229        5.6572500432
  H        11.5960479144        5.2927556953        4.3697438649
  H         9.7995223711        3.4892825642        4.3623919583
  H         8.5057426007        3.5221744879        5.6486091161
  H        10.7119967506        4.3878052030        6.5849120775
  H         6.6968646414        5.3164253965        5.6272300614
  H         6.7750236971        6.5811016026        4.3590313534
  H         7.5461633364        4.4044930373        3.4805736192
  H         9.7596849556        5.3178391461        2.5400961911
  H         8.5748215208        6.6000601452        2.5987970176
      26
 i =        3, time =        3.000, E =       -66.4197762339
  C         9.1949056458        5.9209338376        6.7804648253
  C         8.2919991376        6.8246439094        5.8890934860
  C         9.1770120883        7.7076873125        4.9879974536
  C        10.0910544620        6.8013729026        4.1118396822
  C        10.9755053427        5.9098083654        4.9980098529
  C         9.1649170609        4.1381082990        5.0159184162
  C        10.0603885115        5.0226001205        5.9011458827
  C         7.3666969356        5.9284116887        4.9963401680
  C         8.2519220172        5.0548402523        4.0971979143
  C         9.1613261013        5.9557123900        3.2081929969
  H         8.5208950906        5.3682728390        7.4187212888
  H         9.8351325076        6.5361751083        7.4795665082
  H         7.6553558540        7.4880136544        6.4874279292
  H         8.5228121071        8.3640440780        4.4070080644
  H         9.8009824015        8.4286196448        5.6198372586
  H        10.7771934992        7.4662777054        3.4879545724
  H        11.6131208472        6.4863606734        5.6708211315
  H        11.5959274066        5.2954994951        4.3723430788
  H         9.7997806763        3.4938086670        4.3668191245
  H         8.4994137072        3.5355547361        5.6520564121
  H        10.7092951355        4.3957654191        6.6020453922
  H         6.6828166979        5.3217947840        5.6171072298
  H         6.7904083229        6.5836995435        4.3510921893
  H         7.5210004178        4.4118865426        3.4911979749
  H         9.7434952513        5.3305388349        2.5306550033
  H         8.5870474742        6.6224825213        2.6096629423
      26
 i =        4, time =        4.000, E =       -66.4182196987
  C         9.2004865102        5.9201723660        6.7793159241
  C         8.2932654234        6.8235337537        5.8867312761
  C         9.1756862257        7.7065219637        4.9851090234
  C        10.0992032600        6.7982531663        4.1138156008
  C        10.9801014723        5.9073852392        5.0004364890
  C         9.1659221305        4.1365101065        5.0202407405
  C        10.0608668409        5.0193847710        5.9056121547
  C         7.3607465244        5.9247467091        4.9938117904
  C         8.2449928709        5.0579054839        4.0927212859
  C         9.1602343650        5.9635847600        3.2071894405
  H         8.5102889413        5.3810850516        7.4179068511
  H         9.8322104495        6.5220960151        7.4823205915
  H         7.6562753075        7.4918558820        6.4740394704
  H         8.5132537448        8.3610758524        4.4134231337
  H         9.7828748574        8.4349842477        5.6057709432
  H        10.7857864283        7.4588978414        3.5051958485
  H        11.6146068872        6.4709060832        5.6843427447
  H        11.6016465995        5.2928143137        4.3706746798
  H         9.7969296405        3.4984449093        4.3744117460
  H         8.4940419583        3.5465747140        5.6547454370
  H        10.7010870159        4.4076876131        6.6113608023
  H         6.6691447037        5.3279666987        5.6058387409
  H         6.8007141521        6.5891916931        4.3411743882
  H         7.5060762121        4.4245564689        3.5053393163
  H         9.7292973292        5.3412603970        2.5187426343
  H         8.5915692075        6.6523301160        2.6135310990
      26
 i =        5, time =        5.000, E =       -66.4174251511
  C         9.2058537979        5.9203978420        6.7781659562
  C         8.2947391247        6.8221721459        5.8841358389
  C         9.1749256838        7.7054846452        4.9827011290
  C        10.1076233071        6.7959584451        4.1157142972
  C        10.9837839688        5.9046568688        5.0036023867
  C         9.1665766849        4.1354806476        5.0240430390
  C        10.0619220345        5.0158301960        5.9103586285
  C         7.3556599933        5.9215237732        4.9915321703
  C         8.2378558841        5.0604074045        4.0883410921
  C         9.1593577362        5.9711045232        3.2069638702
  H         8.4979819735        5.3872369625        7.4209378992
  H         9.8267795080        6.5065694185        7.4803751155
  H         7.6565307917        7.4958441522        6.4643352947
  H         8.5030578717        8.3583014592        4.4141132262
  H         9.7612252309        8.4343522655        5.5882787554
  H        10.7887179594        7.4464577513        3.5248789200
  H        11.6192804151        6.4593240690        5.6977387019
  H        11.6128070032        5.2850271360        4.3654242670
  H         9.7918593143        3.5016905946        4.3841817154
  H         8.4891153558        3.5541900463        5.6572122800
  H        10.6887083808        4.4218188851        6.6136060095
  H         6.6550433450        5.3341062358        5.5942449001
  H         6.8056459782        6.5974854214        4.3296562318
  H         7.5011458577        4.4409992720        3.5210622303
  H         9.7174593669        5.3496753101        2.5039263472
  H         8.5894915621        6.6880141271        2.6120031491
      26
 i =        6, time =        6.000, E =       -66.4144020612
  C         9.2105001465        5.9213931204        6.7770161391
  C         8.2963993440        6.8205352736        5.8812959381
  C         9.1745106713        7.7043871903        4.9805329337
  C        10.1160202458        6.7943416639        4.1177584726
  C        10.9867271011        5.9013791820        5.0074591914
  C         9.1667004013        4.1352247719        5.0273494495
  C        10.0633675021        5.0121401539        5.9151083024
  C         7.3515006074        5.9190778538        4.9893602246
  C         8.2308453189        5.0625381970        4.0843362101
  C         9.1584655649        5.9785225362        3.2072013704
  H         8.4862179028        5.3876031552        7.4259612663
  H         9.8211455536        6.4921543020        7.4758445228
  H         7.6562120661        7.4997510074        6.4588094324
  H         8.4928218402        8.3548301481        4.4086056346
  H         9.7389051266        8.4292609321        5.5702832816
  H        10.7885335777        7.4315879305        3.5441018036
  H        11.6269467271        6.4516824863        5.7101889841
  H        11.6273208224        5.2741232084        4.3589307005
  H         9.7858814166        3.5018003650        4.3946479844
  H         8.4843577703        3.5577715135        5.6597661769
  H        10.6748614568        4.4351449599        6.6111056283
  H         6.6398777205        5.3394513424        5.5831390401
  H         6.8059407992        6.6073528337        4.3180062574
  H         7.5041446780        4.4582456794        3.5351569370
  H         9.7075909860        5.3563269663        2.4867304094
  H         8.5837877474        6.7254376860        2.6085420239
      26
 i =        7, time =        7.000, E =       -66.4088929343
  C         9.2139284773        5.9228609209        6.7758297046
  C         8.2981952291        6.8186157069        5.8781988102
  C         9.1740981424        7.7029560234        4.9782007200
  C        10.1241396381        6.7931130656        4.1202682955
  C        10.9892758080        5.8972503114        5.0120025783
  C         9.1660920309        4.1358865134        5.0302744978
  C        10.0649452354        5.0085381266        5.9195609787
  C         7.3481689959        5.9177175590        4.9870996388
  C         8.2243171863        5.0646361101        4.0809851806
  C         9.1573372725        5.9862112262        3.2075087784
  H         8.4776277869        5.3836761889        7.4306856652
  H         9.8179319989        6.4815886790        7.4714451952
  H         7.6558864600        7.5029222018        6.4573003407
  H         8.4835654887        8.3492117619        4.3970162344
  H         9.7192552768        8.4235744393        5.5553357903
  H        10.7889531324        7.4177658286        3.5594463237
  H        11.6368868819        6.4473054489        5.7204968298
  H        11.6425535413        5.2626340786        4.3541474729
  H         9.7801771176        3.4972376802        4.4044901947
  H         8.4797749477        3.5572893032        5.6624167593
  H        10.6630083770        4.4439763012        6.6074250670
  H         6.6232283720        5.3436774432        5.5728470742
  H         6.8029219260        6.6171096560        4.3080670201
  H         7.5114526037        4.4724476227        3.5436845152
  H         9.6985333479        5.3625974315        2.4682258362
  H         8.5777134323        6.7604228750        2.6068787272
      26
 i =        8, time =        8.000, E =       -66.4048346906
  C         9.2156231385        5.9244849113        6.7745989176
  C         8.2999905669        6.8164812893        5.8749400689
  C         9.1733446657        7.7009424134        4.9753248531
  C        10.1315184386        6.7919854517        4.1235002906
  C        10.9917317264        5.8921128575        5.0171505252
  C         9.1645738580        4.1375060966        5.0328417781
  C        10.0663456998        5.0053479285        5.9232929248
  C         7.3455789683        5.9177395532        4.9846463951
  C         8.2188424273        5.0670204048        4.0786558456
  C         9.1558578321        5.9942766841        3.2075236567
  H         8.4748449211        5.3770458657        7.4329324308
  H         9.8194217034        6.4775190826        7.4696913984
  H         7.6564587458        7.5042891082        6.4592862983
  H         8.4768600709        8.3399808455        4.3801506167
  H         9.7060030148        8.4216173855        5.5473432302
  H        10.7938305770        7.4088935734        3.5671783936
  H        11.6477719029        6.4453111729        5.7269714026
  H        11.6556088141        5.2531647882        4.3539369327
  H         9.7755239062        3.4872734126        4.4126612692
  H         8.4758339111        3.5532138430        5.6647813671
  H        10.6569436622        4.4443645781        6.6064629048
  H         6.6057660957        5.3468438182        5.5635008675
  H         6.7980401472        6.6248369966        4.3018981660
  H         7.5187656557        4.4791401400        3.5423280044
  H         9.6891278671        5.3700358824        2.4503860986
  H         8.5740032081        6.7885806590        2.6100727305
      26
 i =        9, time =        9.000, E =       -66.4060275886
  C         9.2153185051        5.9260347241        6.7734014082
  C         8.3016016558        6.8142518684        5.8716924644
  C         9.1720797777        7.6982800819        4.9717186039
  C        10.1377448051        6.7908001421        4.1275014347
  C        10.9942973889        5.8860125685        5.0227503810
  C         9.1620829850        4.1399464567        5.0349808918
  C        10.0673655765        5.0028198948        5.9259913015
  C         7.3436150334        5.9192876395        4.9820138142
  C         8.2149140916        5.0698366384        4.0775883815
  C         9.1540349406        6.0025744549        3.2070120722
  H         8.4795006225        5.3691568004        7.4313230974
  H         9.8262362133        6.4810895463        7.4714813892
  H         7.6588393315        7.5027948100        6.4638855299
  H         8.4742491686        8.3262423411        4.3594770670
  H         9.7012442229        8.4259489629        5.5484536406
  H        10.8051136998        7.4072189089        3.5653291492
  H        11.6580197321        6.4447513188        5.7281922740
  H        11.6641780591        5.2475687914        4.3601201896
  H         9.7718376560        3.4726818427        4.4189255944
  H         8.4732285484        3.5466029534        5.6662632955
  H        10.6587504594        4.4341851924        6.6104461921
  H         6.5891658484        5.3494405333        5.5549599197
  H         6.7925879770        6.6290985184        4.3009728353
  H         7.5232537098        4.4755908741        3.5286726848
  H         9.6785777062        5.3798586646        2.4354061624
  H         8.5742234723        6.8066944736        2.6197629654
      26
 i =       10, time =       10.000, E =       -66.4108360252
  C         9.2130546750        5.9275699550        6.7723162642
  C         8.3029788293        6.8118645562        5.8683778945
  C         9.1703080633        7.6949461516        4.9671788911
  C        10.1431708385        6.7895228584        4.1323893715
  C        10.9972559934        5.8786364005        5.0290976678
  C         9.1584580853        4.1431406035        5.0367150402
  C        10.0681120251        5.0007876469        5.9278407244
  C         7.3419895092        5.9224761661        4.9790880778
  C         8.2124071674        5.0731765351        4.0776630832
  C         9.1518186519        6.0114924833        3.2058777795
  H         8.4922595931        5.3603041590        7.4254540960
  H         9.8374393167        6.4917750004        7.4756152265
  H         7.6638497731        7.4975970966        6.4705448104
  H         8.4766290240        8.3067366247        4.3349106297
  H         9.7038829327        8.4361230427        5.5578867200
  H        10.8224920084        7.4118856032        3.5547151378
  H        11.6671092272        6.4448504844        5.7235579114
  H        11.6677548915        5.2460386832        4.3736514860
  H         9.7678665293        3.4543801408        4.4244119714
  H         8.4723791665        3.5382660392        5.6664097278
  H        10.6676750771        4.4134601219        6.6188089649
  H         6.5742413967        5.3523927688        5.5462509116
  H         6.7869203933        6.6297216421        4.3057243242
  H         7.5258717744        4.4621823799        3.5025255918
  H         9.6657914808        5.3934465774        2.4237750767
  H         8.5785614181        6.8148691021        2.6368724013
      26
 i =       11, time =       11.000, E =       -66.4138793912
  C         9.2094022592        5.9290795162        6.7716076941
  C         8.3039038423        6.8095527358        5.8653561668
  C         9.1685037540        7.6915446042        4.9623372487
  C        10.1476051941        6.7884610359        4.1374407792
  C        11.0003470698        5.8707515611        5.0356491318
  C         9.1540719819        4.1465487946        5.0377654577
  C        10.0687692708        4.9991912443        5.9289828646
  C         7.3406796896        5.9269072630        4.9762087374
  C         8.2113253333        5.0764419432        4.0785302582
  C         9.1495296896        6.0200977485        3.2043648219
  H         8.5108868127        5.3512874575        7.4167791245
  H         9.8491629993        6.5063864890        7.4788134918
  H         7.6712337506        7.4889870288        6.4780441439
  H         8.4840870864        8.2835271181        4.3094433562
  H         9.7104494387        8.4476818518        5.5713198535
  H        10.8409000818        7.4192232756        3.5397527572
  H        11.6737100675        6.4452403935        5.7138135181
  H        11.6664652625        5.2477731485        4.3924101860
  H         9.7624692462        3.4364715774        4.4298731816
  H         8.4735957096        3.5301374731        5.6649166590
  H        10.6794959024        4.3872585666        6.6274021115
  H         6.5639254500        5.3561542535        5.5377328790
  H         6.7815359673        6.6273757191        4.3150592400
  H         7.5300523324        4.4438922491        3.4699531021
  H         9.6520318406        5.4096405330        2.4168536961
  H         8.5852560696        6.8138658544        2.6587205540
      26
 i =       12, time =       12.000, E =       -66.4126107356
  C         9.2046722395        5.9308541043        6.7713186646
  C         8.3043849008        6.8071510930        5.8624643555
  C         9.1669797741        7.6881790610        4.9572269202
  C        10.1517007544        6.7877621832        4.1426281734
  C        11.0036104589        5.8620568259        5.0428614510
  C         9.1487336042        4.1501544177        5.0380719541
  C        10.0696753380        4.9976199739        5.9298749413
  C         7.3395079651        5.9326539221        4.9733048617
  C         8.2113006201        5.0794592350        4.0797849738
  C         9.1472246215        6.0286856866        3.2027341724
  H         8.5341640287        5.3408010572        7.4068045923
  H         9.8589057672        6.5232004930        7.4781323274
  H         7.6810696876        7.4768998998        6.4865615652
  H         8.4966335974        8.2562685838        4.2818972571
  H         9.7174443753        8.4570337937        5.5852603043
  H        10.8573034418        7.4258092945        3.5237949133
  H        11.6783415846        6.4460733055        5.6995979911
  H        11.6620315630        5.2506152709        4.4152365910
  H         9.7539835263        3.4203332146        4.4367014779
  H         8.4767398153        3.5227001043        5.6617558266
  H        10.6907554674        4.3581297457        6.6326946522
  H         6.5586999679        5.3613185886        5.5288376649
  H         6.7754412949        6.6236297651        4.3279008316
  H         7.5403424113        4.4245181725        3.4339898858
  H         9.6372241998        5.4286831905        2.4134989552
  H         8.5918192464        6.8073981973        2.6840749593
      26
 i =       13, time =       13.000, E =       -66.4085566015
  C         9.1997458916        5.9329763929        6.7714216996
  C         8.3043805059        6.8047530383        5.8598714297
  C         9.1662557603        7.6852642988        4.9525085389
  C        10.1555199657        6.7875970603        4.1473271849
  C        11.0065519512        5.8533525595        5.0503449395
  C         9.1428645322        4.1535803325        5.0375133023
  C        10.0709986608        4.9959007141        5.9307861787
  C         7.3385463126        5.9391102659        4.9706730002
  C         8.2121147773        5.0817234195        4.0809118576
  C         9.1453163380        6.0363736361        3.2016215912
  H         8.5574200621        5.3281896994        7.3989729999
  H         9.8633430945        6.5389256634        7.4712292326
  H         7.6918341300        7.4631523970        6.4956305333
  H         8.5123857955        8.2283728177        4.2540294441
  H         9.7210969743        8.4601352207        5.5950207282
  H        10.8672642496        7.4280710396        3.5116319173
  H        11.6813837264        6.4478682642        5.6837573202
  H        11.6576359171        5.2510918441        4.4372640297
  H         9.7421850092        3.4089640569        4.4449175199
  H         8.4809215648        3.5171101037        5.6575798964
  H        10.6971517117        4.3317078495        6.6311115436
  H         6.5593382968        5.3674156548        5.5206001234
  H         6.7678744405        6.6211147394        4.3411051716
  H         7.5592666048        4.4096884580        3.4016838758
  H         9.6236377934        5.4479208967        2.4122754606
  H         8.5936502980        6.8015307504        2.7076567622
      26
 i =       14, time =       14.000, E =       -66.4059332093
  C         9.1950973379        5.9355588015        6.7717594869
  C         8.3039129339        6.8022676763        5.8575106441
  C         9.1666484472        7.6828290087        4.9484185886
  C        10.1592905999        6.7879471536        4.1513730360
  C        11.0088657371        5.8448497564        5.0581728707
  C         9.1365147103        4.1568085668        5.0360526701
  C        10.0728325769        4.9938477737        5.9319216493
  C         7.3378559075        5.9460708001        4.9683666574
  C         8.2136652206        5.0830850153        4.0815851150
  C         9.1440457789        6.0428924891        3.2015815304
  H         8.5776963422        5.3121969509        7.3959188396
  H         9.8609834294        6.5523086900        7.4571187942
  H         7.7023369960        7.4491336691        6.5055959130
  H         8.5299316219        8.2016269677        4.2255348586
  H         9.7193845683        8.4553366686        5.5981979612
  H        10.8690648175        7.4243096413        3.5056915487
  H        11.6838904486        6.4513895030        5.6684888546
  H        11.6563798149        5.2458440977        4.4550398645
  H         9.7271090620        3.4032772257        4.4541894623
  H         8.4850491213        3.5136564995        5.6531750621
  H        10.6965312513        4.3104509412        6.6210885805
  H         6.5653875824        5.3737959890        5.5139195483
  H         6.7576438251        6.6221904144        4.3523576923
  H         7.5881077837        4.4022217243        3.3763365106
  H         9.6127434686        5.4656911710        2.4109286138
  H         8.5866382330        6.8019902211        2.7260594999
      26
 i =       15, time =       15.000, E =       -66.4070079727
  C         9.1908512499        5.9386340153        6.7721692762
  C         8.3029723840        6.7995238609        5.8552265557
  C         9.1683859069        7.6807067202        4.9449610487
  C        10.1632273820        6.7886848167        4.1548269774
  C        11.0104140776        5.8364029221        5.0665895089
  C         9.1294761632        4.1600398962        5.0336395643
  C        10.0752015236        4.9913028705        5.9333937249
  C         7.3375009528        5.9536614103        4.9662819211
  C         8.2160503712        5.0835661992        4.0816168598
  C         9.1434898074        6.0483582737        3.2030340438
  H         8.5938117740        5.2919848645        7.3991696072
  H         9.8513750061        6.5635641387        7.4355901909
  H         7.7116939485        7.4358190867        6.5171609835
  H         8.5485900492        8.1767884055        4.1953466112
  H         9.7114668732        8.4424349838        5.5938098198
  H        10.8624617460        7.4139969826        3.5069549911
  H        11.6869426677        6.4573938386        5.6553057919
  H        11.6602555229        5.2324030454        4.4668051643
  H         9.7090223672        3.4030861619        4.4636973586
  H         8.4879196730        3.5123288621        5.6493762159
  H        10.6879683674        4.2948594273        6.6021279580
  H         6.5760875103        5.3796195730        5.5098748497
  H         6.7437239995        6.6285276373        4.3603894138
  H         7.6276388140        4.4032900766        3.3590609579
  H         9.6055226002        5.4811229731        2.4072514956
  H         8.5682102473        6.8119164488        2.7381765942
      26
 i =       16, time =       16.000, E =       -66.4091321511
  C         9.1873378171        5.9416690849        6.7724778648
  C         8.3016142334        6.7966751078        5.8531168591
  C         9.1713625087        7.6788577694        4.9423625959
  C        10.1669806980        6.7894771468        4.1574885872
  C        11.0111158242        5.8286401006        5.0747944277
  C         9.1222417297        4.1632271081        5.0305337811
  C        10.0777354120        4.9884858047        5.9350268301
  C         7.3375406956        5.9613192082        4.9644287916
  C         8.2192407845        5.0832801599        4.0809477087
  C         9.1435797321        6.0525856449        3.2059620147
  H         8.6044970769        5.2705498408        7.4082498965
  H         9.8363849726        6.5728618949        7.4100689865
  H         7.7182712080        7.4253484300        6.5295024547
  H         8.5661677474        8.1568350118        4.1662589270
  H         9.6987240834        8.4243924719        5.5828686906
  H        10.8494909256        7.3990983581        3.5148434199
  H        11.6908567226        6.4654376135        5.6465519163
  H        11.6686926779        5.2118900484        4.4716962769
  H         9.6908050502        3.4072734488        4.4708992018
  H         8.4879772248        3.5132191421        5.6474304027
  H        10.6727995389        4.2856568048        6.5772516942
  H         6.5892378481        5.3832469882        5.5101265960
  H         6.7275977567        6.6397689050        4.3642763739
  H         7.6729495297        4.4124254647        3.3512468392
  H         9.6031303533        5.4924614102        2.4002628506
  H         8.5410421520        6.8289322253        2.7442142604
      26
 i =       17, time =       17.000, E =       -66.4077776544