     156
 i =        0, time =     1000.000, E =      -517.0627873325
  C         8.1122209605        4.4893098661       22.4196608145
  C         0.8368844194        4.7159442860        3.7553746990
  C         4.6310454323        4.8129269551        9.5468266112
  C         3.4108284377        4.1177236586       17.0845825872
  C         0.4616049847        8.7509536548       16.5777591459
  C         7.7135418224        0.3092340005        9.3112982241
  C         3.7648905712        0.4830140558        3.9358189678
  C         4.9704625640        8.8616703119       23.2135832511
  C         8.5479080732        5.5800261435       21.5969329791
  C         0.3020420700        3.4534775098        4.5279648520
  C         4.2571523579        3.6555323069        8.6836708839
  C         3.8846655567        5.4502532089       17.6329635914
  C         0.0421409957        0.8706783426       17.4732425699
  C         8.1945268811        8.0315410860        8.5511206263
  C         4.0609344879        8.2646663757        4.7508802229
  C         4.6206117784        1.0136576704       22.2197702626
  C         7.4633735945        5.7273196366       20.4113386865
  C         1.3172234597        3.0474310085        5.6383929562
  C         5.2131143259        3.4981724371        7.5329344866
  C         3.2355519771        5.7663538032       19.0297099724
  C         1.1040281310        1.3424847193       18.4793244636
  C         7.2115334777        7.6458707214        7.4110467780
  C         3.0030278034        8.0283234559        5.7950119142
  C         5.7177328948        1.2038332910       21.1625838792
  C         7.9851300921        6.3778292878       19.0745314624
  C         0.7678927947        1.9032294551        6.4579806278
  C         4.8806371957        2.2878259887        6.6528667662
  C         3.5694778785        7.1270541177       19.5417569743
  C         0.7390486648        2.5790342975       19.2557911566
  C         7.5203106816        6.3004526407        6.7559149253
  C         3.4161398750        6.7731163204        6.5536972792
  C         5.2006290805        2.2356631305       20.1123729056
  H         7.0899903243        4.7288250564       22.7594188417
  H         1.8852094115        4.5361094225        3.3071611908
  H         5.6920239004        4.6852429444        9.8700862525
  H         2.2824954101        4.1425837584       16.9472388776
  H         1.2179935898        9.0909595708       15.9091801677
  H         6.7724256072        0.0629543390        9.7621207623
  H         2.7235772580        0.4527262192        3.5501905357
  H         6.0303654924        9.0142428880       23.5503880345
  H         8.0508156570        3.5230832068       21.8993204722
  H         0.9515703174        5.5962862967        4.3992290166
  H         4.5885944660        5.7257511842        8.9475831194
  H         3.7457587205        3.2407583399       17.7029202513
  H         0.8410222297        7.8836311702       17.0437204944
  H         7.5660011419        1.1343154841        8.6041210042
  H         3.8280299590        1.4861046655        4.4541790223
  H         4.8306248681        7.8595613058       22.8260458843
  H         1.2280018472        5.4317615879       21.3191046429
  H         7.7549394124        3.5524548399        5.0124195926
  H         3.2043350603        3.7744048271        8.4400088550
  H         4.9472614408        5.5605027873       17.6875509489
  H         7.5466207060        0.6286842152       18.0945783590
  H         0.8059945180        8.1862961823        8.1567717772
  H         4.9539152069        8.4777892079        5.3134785272
  H         3.7032677020        0.7746656238       21.6634897292
  H         8.5605802636        6.5423817519       22.1996922450
  H         0.1832571895        2.5858528607        3.8802702784
  H         4.2656074241        2.6636542569        9.2433560430
  H         3.5756510399        6.2155752094       16.9542456400
  H        -0.2218447534        1.8020474368       16.8832662738
  H         8.2939899430        7.2387125282        9.3361181256
  H         4.1800096069        7.3109682669        4.0752674953
  H         4.3599671749        1.9493095210       22.7526382050
  H         7.0843791186        4.7176218337       20.1987549068
  H         1.4638231805        3.9400678422        6.2758161009
  H         5.2129621301        4.5417326777        6.9770668914
  H         3.5934840559        4.9590279937       19.6909670556
  H         1.4559096655        0.4934156589       19.1546968458
  H         7.1011856048        8.4962139682        6.7176388718
  H         3.0319167022        8.8908567441        6.5491426551
  H         5.9505708711        0.1785221983       20.7131845070
  H         6.5745768935        6.2760919219       20.7444488692
  H         2.2500875738        2.7670403868        5.1766450354
  H         6.2337492278        3.4121564662        8.0081039728
  H         2.1315801805        5.6962902069       18.9088211205
  H         1.9889027892        1.4414461681       17.9256574539
  H         6.1872586538        7.5458485678        7.8370543917
  H         2.0480739617        7.8967603218        5.3496791249
  H         6.6290563098        1.6546304292       21.6193644961
  H         7.1087211419        6.6091749722       18.5163986181
  H         1.5064429205        1.5633348933        7.1585465554
  H         5.5396896522        2.2834262723        5.7523683533
  H         3.0185499699        7.3392998805       20.4795067057
  H         1.5334394200        2.8522519499       19.9210169462
  H         6.9978370479        6.1535001825        5.7885955343
  H         2.6223450261        6.3339144513        7.2064879850
  H         5.7084249728        2.1954610359       19.1521434638
  H         8.7162374934        5.7780416418       18.4035918700
  H        -0.2140606162        2.1796100501        7.0385186598
  H         3.8625418981        2.3037664429        6.2337536562
  H         4.6379440021        7.3126860689       19.7968704915
  H        -0.1410306476        2.3623809651       19.8933640498
  H         8.5949113980        6.2169568519        6.6066773633
  H         4.2943582328        6.9266659560        7.2186391674
  H         4.1473922370        2.1594157807       19.8465311961
  H         8.4421548392        7.3368725786       19.3339606571
  H         0.4924987286        1.0884505603        5.7663899336
  H         5.0688520717        1.3033232765        7.1354879882
  H         3.3612492843        7.9816471361       18.7908581289
  H         0.5586688495        3.3286778696       18.5124280508
  H         7.1638146416        5.4511081050        7.3776324478
  H         3.6965196218        6.0336465743        5.8180166210
  H         5.4120075889        3.2455821976       20.5496220693
  H         9.2170728968        3.3113487476       23.6706555895
  H         0.2020663913        4.9598306688        1.7613052539
  H         3.6995740184        6.0301875748       10.9748788764
  H         3.9472410691        2.7900800993       15.5502938125
  H        -0.6261044536        7.3323968209       15.4465672670
  H         9.0901787271        1.6260256270       10.2505314480
  H         4.4050408907        1.5748980080        2.2916721804
  H         3.9905648655        8.1859467935       24.9571757799
  H         8.6370932354        4.7309351199       24.5276406971
  H        -1.1275648454        4.8083070220        2.7872517147
  H         4.1330187554        4.5089809621       11.6449638939
  H         3.4002901955        4.3649410202       15.0071038724
  H        -0.6526109241       -0.0791868394       14.8764545743
  H         8.5117900977        9.4831382801       11.3105621672
  H         4.3030665963        8.9555333778        1.9577966364
  H         4.3213955226        0.8056751264       25.0116322191
  H         1.5881651268        4.7263747601       23.4637645585
  H         8.2397227744        6.2422608332        2.8982194716
  H         2.7685840578        4.6348637945       10.5258135669
  H         4.9281630352        4.1928507098       15.5554812907
  H         6.8225617772        8.5101950311       16.1592620833
  H         1.2078778869        0.1520157893       10.0456304390
  H         5.6363189926        0.6190361009        2.9503618497
  H         3.0566735570        9.2278494211       24.1276114255
  N         0.6102036598        4.3101250456       23.6727919048
  N         8.3001331393        5.1845619248        2.7217065315
  N         3.7083031335        5.0038726837       10.7409500819
  N         3.9667249929        3.8318977226       15.7650612984
  N         7.7227459710        8.3387628176       15.7361440225
  N         0.3314522025        0.6425016595       10.2966200758
  N         4.6303992758        0.6647546146        2.7126777700
  N         4.0444503269        9.0411621716       24.3911941163
  I         0.7761916503        0.3182134635       23.1321036820
  I         7.9698233187        8.6042670883        3.1587738105
  I         3.8337680694        8.5930707771        9.6702212259
  I         4.4758943521        0.0152966621       16.2101983401
  I         7.4632516116        4.6588722548       15.7125257101
  I         0.4629282239        4.0905743159        9.5198702949
  I         4.5956482425        4.4057910303        3.3933726868
  I         3.8287152009        4.9138966950       23.1866932481
  I         6.5793590846        2.3622760253       25.4066407940
  I         2.9579004716        7.4494917081        0.8684015267
  I         6.8804525149        7.3012887635       12.2649695561
  I         1.2745512611        1.5481394067       13.8027476748
  I         2.3742697075        6.2135504024       13.9635118805
  I         5.4533727893        2.7104977053       12.5455554952
  I         1.8010971019        2.6319314497        1.3109807781
  I         6.8622007014        6.1597350425       25.7280711950
 Pb        -0.0291615528       -0.0757763513       -0.0799403355
 Pb         4.1430208387        0.1425569384       12.9949960484
 Pb        -0.0057762247        4.2709848641       12.8818643964
 Pb         4.2606391904        4.4159523455        0.2727484474
     156
 i =        1, time =     1001.000, E =      -517.0656072959
  C         8.1090535507        4.4864621177       22.4221499829
  C         0.8335543077        4.7082778198        3.7529440401
  C         4.6434811316        4.8140659400        9.5457499317
  C         3.4114797964        4.1142716917       17.0865941636
  C         0.4642242815        8.7511150897       16.5825203235
  C         7.7055664822        0.3071570868        9.3145368418
  C         3.7649139262        0.4799859434        3.9365480358
  C         4.9631539196        8.8598722252       23.2118675049
  C         8.5444850412        5.5868823889       21.5913556062
  C         0.2945219018        3.4569091900        4.5352782554
  C         4.2605404251        3.6492250632        8.6852363456
  C         3.8858386309        5.4475163343       17.6313400118
  C         0.0424683874        0.8690033500       17.4706352173
  C         8.1947882686        8.0362511669        8.5469910915
  C         4.0585105142        8.2694892717        4.7467472860
  C         4.6214954954        1.0062332122       22.2171445878
  C         7.4751400090        5.7273320900       20.4179410139
  C         1.3204360722        3.0519463138        5.6448077710
  C         5.2187411002        3.4985926625        7.5351239364
  C         3.2393929247        5.7617499896       19.0253006420
  C         1.1034395460        1.3425949933       18.4753880961
  C         7.2121120316        7.6447720697        7.4106910105
  C         2.9944611210        8.0248650146        5.7984455355
  C         5.7187911572        1.2038658410       21.1581731464
  C         7.9779301005        6.3774789797       19.0804431641
  C         0.7659437644        1.9061612791        6.4518178305
  C         4.8900226496        2.2911308694        6.6558338493
  C         3.5701431867        7.1349109059       19.5371182233
  C         0.7431634039        2.5787286842       19.2605275715
  C         7.5142617234        6.2939503948        6.7575549526
  C         3.4115607510        6.7759640128        6.5624118337
  C         5.2046265336        2.2370436862       20.1126406999
  H         7.0813670058        4.7062402167       22.7174985576
  H         1.8777935155        4.5286547735        3.2933529134
  H         5.6930072681        4.6812571868        9.8634041393
  H         2.2917078526        4.1225678391       16.9641199723
  H         1.2110549260        9.0973391192       15.8750780723
  H         6.7664217949        0.0537036348        9.7649660938
  H         2.7309178264        0.4583551984        3.5605506890
  H         6.0044901469        9.0430756282       23.5562068143
  H         8.0535664028        3.5173272828       21.8933445266
  H         0.9520046329        5.5901010409        4.3802838024
  H         4.5911481999        5.7535467695        8.9274825832
  H         3.7551714112        3.2394255263       17.7154821818
  H         0.8220030017        7.8989528565       17.0469580197
  H         7.5808610003        1.1137138787        8.5888543669
  H         3.8488100973        1.5037972614        4.4526503761
  H         4.8467971090        7.8551564560       22.8121174390
  H         1.2312239664        5.4200092779       21.3043155341
  H         7.7472579708        3.5569122989        5.0116936374
  H         3.1880843756        3.7751312439        8.4449273647
  H         4.9517378333        5.5538897092       17.7098344898
  H         7.5666875506        0.6363379843       18.0865286732
  H         0.8324319906        8.2181519304        8.1355810565
  H         4.9829703073        8.4476032677        5.3353615338
  H         3.7108943849        0.7657436849       21.6765805078
  H         8.5621052502        6.5337153367       22.2331609302
  H         0.1792826142        2.5809676791        3.8955461286
  H         4.2785498076        2.6854677785        9.2524912752
  H         3.5779490286        6.1904960263       16.9542988846
  H        -0.2024937931        1.8019555114       16.8892870209
  H         8.2947782600        7.2491750247        9.3141367846
  H         4.1870553414        7.3159864681        4.0858694868
  H         4.3712978673        1.9820370739       22.7710851701
  H         7.0902291640        4.7327747433       20.2155817651
  H         1.4527215570        3.9564770010        6.2939397952
  H         5.2152177035        4.5121633652        6.9719960904
  H         3.5959267367        4.9545662766       19.6835966968
  H         1.4419949404        0.4814857941       19.1464654487
  H         7.1039829082        8.4926023944        6.7067422148
  H         3.0433761406        8.8997300517        6.5549890731
  H         5.9384036435        0.1810014327       20.6944707681
  H         6.6115979436        6.3072935457       20.7527299335
  H         2.2649928191        2.7782829370        5.1674966128
  H         6.2475012312        3.4140854853        8.0199617569
  H         2.1481455404        5.6905586995       18.9295238578
  H         1.9926629894        1.4542588483       17.9160177971
  H         6.1747547938        7.5705347259        7.8253413647
  H         2.0386591540        7.9063357791        5.3508236957
  H         6.6350086980        1.6514542784       21.6228447931
  H         7.1031843687        6.6235572346       18.5052644496
  H         1.5297326342        1.5593630596        7.1800455614
  H         5.5514526224        2.3068875116        5.7622652514
  H         3.0196060461        7.3324061963       20.4684752200
  H         1.5512442860        2.8499894555       19.9104646506
  H         6.9895370589        6.1566263514        5.8013532999
  H         2.6362961608        6.3237918124        7.2093823712
  H         5.7315347397        2.1688419150       19.1635737227
  H         8.7453010362        5.8046620110       18.4032504918
  H        -0.2089753579        2.1678410289        7.0322513222
  H         3.8680191902        2.2793933153        6.2159763471
  H         4.6314790153        7.3384863303       19.7932738311
  H        -0.1453875307        2.3697656492       19.9110120070
  H         8.5973155389        6.2146106642        6.5802190975
  H         4.3040141950        6.9289204487        7.2019401599
  H         4.1432297026        2.1629361364       19.8682486136
  H         8.4549076747        7.3440098640       19.3206956554
  H         0.5255595209        1.0747033084        5.7721728890
  H         5.0796895597        1.3292834473        7.1286752673
  H         3.3657649423        7.9573938101       18.7865576293
  H         0.5339872964        3.3400342237       18.5110047380
  H         7.1636314513        5.4332555222        7.3736044814
  H         3.6841632770        6.0213448582        5.8084244377
  H         5.4337027929        3.2161762944       20.5703788639
  H         9.2103597092        3.3012630266       23.6868807358
  H         0.2069201488        4.9763852030        1.7657478420
  H         3.6962020558        6.0225502055       10.9558663999
  H         3.9487745242        2.7911807389       15.5644477128
  H        -0.6181235395        7.3152348774       15.4431720024
  H         9.0739428193        1.6274365815       10.2369714868
  H         4.4246551006        1.5664782106        2.3057092733
  H         3.9875174966        8.1840341212       24.9618279969
  H         8.6264268442        4.7366544293       24.5164591033
  H        -1.1124299433        4.8056231001        2.7803409281
  H         4.1141575573        4.5031091836       11.6745418073
  H         3.4222737401        4.3454856136       15.0161770811
  H        -0.6705478399       -0.0425599856       14.8876970350
  H         8.5052542246        9.4831353389       11.2904390622
  H         4.3051536648        8.9571949811        1.9655981407
  H         4.3604186664        0.7859745801       25.0159957044
  H         1.5615299911        4.7099505409       23.4502642524
  H         8.2561725515        6.2491378430        2.8839028006
  H         2.7690311120        4.6126394871       10.5245431416
  H         4.9407753823        4.2069569515       15.5666617505
  H         6.8243631621        8.5295662142       16.1680913599
  H         1.1899651418        0.1336430368       10.0457758672
  H         5.6362580233        0.5885067154        2.9201926005
  H         3.0637007439        9.2118087528       24.1356444140
  N         0.6122136700        4.3095791261       23.6708584637
  N         8.3021687042        5.1862216126        2.7253221978
  N         3.7053994095        5.0000581526       10.7414142042
  N         3.9660797735        3.8326528434       15.7616174271
  N         7.7240902266        8.3396370982       15.7381370625
  N         0.3293095596        0.6397412747       10.3001549774
  N         4.6292192879        0.6705757974        2.7094871716
  N         4.0430764836        9.0438072782       24.3928168867
  I         0.7733644240        0.3164684861       23.1324737273
  I         7.9713523459        8.6052167457        3.1593124866
  I         3.8344436639        8.5944853985        9.6707884404
  I         4.4747672295        0.0174393521       16.2087500635
  I         7.4646083065        4.6561783291       15.7133013037
  I         0.4639728400        4.0914650019        9.5213673632
  I         4.5964025150        4.4065219598        3.3928596399
  I         3.8287057974        4.9160689783       23.1873537424
  I         6.5828970088        2.3625934263       25.4071035559
  I         2.9563892232        7.4499721877        0.8701761070
  I         6.8799491185        7.3019618197       12.2631121624
  I         1.2705739967        1.5495107332       13.7994835430
  I         2.3734367017        6.2129234110       13.9639020479
  I         5.4528625305        2.7127239265       12.5458369570
  I         1.8023968790        2.6308196452        1.3107789453
  I         6.8625103272        6.1596446939       25.7296907886
 Pb        -0.0311952597       -0.0765761516       -0.0813142770
 Pb         4.1438694891        0.1427445190       12.9940081371
 Pb        -0.0049712835        4.2706204530       12.8821537802
 Pb         4.2599345394        4.4130463071        0.2729461467
     156
 i =        2, time =     1002.000, E =      -517.0706166046
  C         8.1057222297        4.4826598511       22.4258569631
  C         0.8304066038        4.6996890356        3.7510737469
  C         4.6558890370        4.8155466241        9.5445390557
  C         3.4121764756        4.1103466415       17.0895051084
  C         0.4659647813        8.7521004420       16.5864035684
  C         7.6983538203        0.3042426644        9.3164075875
  C         3.7645336812        0.4789514524        3.9367737311
  C         4.9558050461        8.8597405226       23.2101546713
  C         8.5421441669        5.5953891472       21.5848295465
  C         0.2884807012        3.4606679882        4.5426193632
  C         4.2632548098        3.6422845004        8.6876324076
  C         3.8860804899        5.4443279498       17.6309424659
  C         0.0422773853        0.8688043805       17.4693080010
  C         8.1953675896        8.0412833584        8.5425761109
  C         4.0569217319        8.2734206320        4.7425514175
  C         4.6226979935        0.9990879704       22.2149438966
  C         7.4883253339        5.7275361039       20.4241392417
  C         1.3225612990        3.0574181242        5.6510735871
  C         5.2245278974        3.4999507900        7.5370645304
  C         3.2437833441        5.7566440763       19.0199710126
  C         1.1029502554        1.3408968198       18.4721897770
  C         7.2121414397        7.6436634757        7.4109437273
  C         2.9872446029        8.0220801950        5.8034837533
  C         5.7194601684        1.2037928223       21.1534312312
  C         7.9718762400        6.3767938815       19.0867133392
  C         0.7633357270        1.9088832151        6.4464761750
  C         4.8998247116        2.2947847994        6.6577893319
  C         3.5711540548        7.1438730109       19.5325390846
  C         0.7464459022        2.5776344872       19.2651202332
  C         7.5082302219        6.2874338680        6.7591622609
  C         3.4069701715        6.7781400186        6.5711105478
  C         5.2092553198        2.2383561476       20.1133590433
  H         7.0696888188        4.6818221647       22.6838545327
  H         1.8562143822        4.5218642212        3.2839496717
  H         5.6926515199        4.6798523949        9.8611294077
  H         2.3076955736        4.1009290875       16.9831171578
  H         1.2093460664        9.1032414280       15.8408300453
  H         6.7532467470        0.0457240505        9.7746321506
  H         2.7374839886        0.4629186296        3.5692361280
  H         5.9757472437        9.0679738083       23.5629762717
  H         8.0601612583        3.5124646800       21.8895250354
  H         0.9534520268        5.5835791172        4.3681760057
  H         4.5931398666        5.7766268523        8.9143867249
  H         3.7588726545        3.2455458344       17.7256705688
  H         0.8105458461        7.8964070363       17.0627955520
  H         7.5957279131        1.0972176781        8.5765943854
  H         3.8694645586        1.5071787335        4.4485795495
  H         4.8614822308        7.8477043781       22.7979634863
  H         1.2186172833        5.4115259688       21.2875869870
  H         7.7360949104        3.5684852520        5.0111962920
  H         3.1730277182        3.7753779728        8.4440649275
  H         4.9652460496        5.5441509848       17.7322190908
  H         7.5880117104        0.6423236847       18.0731261235
  H         0.8461805934        8.2482331825        8.1183450129
  H         5.0130977121        8.4141833023        5.3519601074
  H         3.7131548519        0.7543126435       21.6887364904
  H         8.5634161465        6.5180167534       22.2588142404
  H         0.1759239975        2.5755157862        3.9050912637
  H         4.2917210716        2.7103547415        9.2626256108
  H         3.5755980592        6.1786966307       16.9430040715
  H        -0.1845419800        1.7950311398       16.8953717467
  H         8.2951383860        7.2567594366        9.2896477496
  H         4.1933603517        7.3339879884        4.1045249948
  H         4.3879693774        2.0052242564       22.7843306176
  H         7.0945536027        4.7435636807       20.2300836174
  H         1.4446666264        3.9673711209        6.3092265861
  H         5.2184613962        4.4673742660        6.9701503101
  H         3.5960261777        4.9519677068       19.6800044473
  H         1.4207646735        0.4763812893       19.1351981076
  H         7.1110369209        8.4861695442        6.6943777854
  H         3.0489286025        8.8991565724        6.5496322811
  H         5.9266704346        0.1947035992       20.6800207423
  H         6.6482956843        6.3397787302       20.7638917909
  H         2.2813844352        2.7906209682        5.1586623251
  H         6.2539498835        3.4155439642        8.0249256562
  H         2.1648756338        5.6828424553       18.9507208208
  H         2.0101395693        1.4740726122       17.8980431978
  H         6.1669584794        7.5962052124        7.8152768773
  H         2.0171764223        7.9167417167        5.3486157563
  H         6.6375423019        1.6411798001       21.6240709097
  H         7.0925383830        6.6377969349       18.4872950220
  H         1.5486434324        1.5555571208        7.2004394837
  H         5.5623192922        2.3302627738        5.7744030136
  H         3.0195083686        7.3269612426       20.4567400283
  H         1.5750356149        2.8523020382       19.9040685488
  H         6.9816879044        6.1623288318        5.8129606954
  H         2.6505299706        6.3167339817        7.2109672968
  H         5.7577588706        2.1423985127       19.1724929051
  H         8.7593460261        5.8368148841       18.4161215397
  H        -0.1890833794        2.1544966886        7.0169250658
  H         3.8769602966        2.2576722529        6.2047879482
  H         4.6241430397        7.3587675372       19.7886046775
  H        -0.1458985594        2.3802434821       19.9233879421
  H         8.5989698699        6.2097594478        6.5535674767
  H         4.3106633024        6.9327234768        7.1822087170
  H         4.1369618817        2.1654176246       19.8923393165
  H         8.4679402355        7.3503354953       19.3076225501
  H         0.5583242566        1.0600031361        5.7794277496
  H         5.0893580318        1.3537220754        7.1263332890
  H         3.3680599674        7.9256499320       18.7879856085
  H         0.5070464963        3.3573518285       18.5120453852
  H         7.1686574629        5.4213530150        7.3688394710
  H         3.6717880630        6.0069079185        5.8005726004
  H         5.4508791939        3.1874405012       20.5872466374
  H         9.2025778722        3.2863548801       23.7117677874
  H         0.2106534701        4.9934156775        1.7706714647
  H         3.6881165113        6.0128825220       10.9356766853
  H         3.9519408066        2.7996981027       15.5788252178
  H        -0.6137606065        7.3066934291       15.4413601619
  H         9.0541724112        1.6346390743       10.2215520432
  H         4.4427595884        1.5714054817        2.3169828867
  H         3.9852833112        8.1794480651       24.9696817141
  H         8.6144644431        4.7405192161       24.5078441600
  H        -1.0937848972        4.8043683274        2.7767272015
  H         4.0869707369        4.5041385502       11.6834094633
  H         3.4424752792        4.3247731242       15.0261756157
  H        -0.6894725182       -0.0100692687       14.8980876276
  H         8.4983757978        9.4781668760       11.2713377530
  H         4.3127877251        8.9601969178        1.9790374598
  H         4.4041485396        0.7758844658       25.0245071559
  H         1.5373183880        4.6963718581       23.4380541319
  H         8.2686388747        6.2504157434        2.8627298213
  H         2.7643952616        4.5922890628       10.5224945711
  H         4.9527151701        4.2161113917       15.5840750737
  H         6.8138519445        8.5484672060       16.1824911151
  H         1.1783678513        0.1096544219       10.0489807806
  H         5.6415525474        0.5554448487        2.8897873329
  H         3.0625296384        9.1990100176       24.1374692772
  N         0.6134554786        4.3089680491       23.6673901433
  N         8.3040490274        5.1882248744        2.7286394992
  N         3.7042477501        4.9960531873       10.7428005789
  N         3.9657488244        3.8330796473       15.7570284749
  N         7.7267402689        8.3400262166       15.7392562709
  N         0.3272383182        0.6375303383       10.3036699166
  N         4.6274273706        0.6753126046        2.7064423743
  N         4.0422828513        9.0452734574       24.3939761113
  I         0.7705569242        0.3147445658       23.1328382963
  I         7.9728749550        8.6061742307        3.1598483491
  I         3.8350927121        8.5959066740        9.6713943289
  I         4.4736269371        0.0195946332       16.2073057412
  I         7.4659483876        4.6535041154       15.7141044281
  I         0.4650079654        4.0923477266        9.5228911203
  I         4.5971939724        4.4072502843        3.3923398626
  I         3.8287252665        4.9182310540       23.1880140317
  I         6.5863904638        2.3629152928       25.4075750247
  I         2.9548611922        7.4504153387        0.8719391791