     156
 i =        0, time =     1000.000, E =      -517.0627873325
  C         8.1122209605        4.4893098661       22.4196608145
  C         0.8368844194        4.7159442860        3.7553746990
  C         4.6310454323        4.8129269551        9.5468266112
  C         3.4108284377        4.1177236586       17.0845825872
  C         0.4616049847        8.7509536548       16.5777591459
  C         7.7135418224        0.3092340005        9.3112982241
  C         3.7648905712        0.4830140558        3.9358189678
  C         4.9704625640        8.8616703119       23.2135832511
  C         8.5479080732        5.5800261435       21.5969329791
  C         0.3020420700        3.4534775098        4.5279648520
  C         4.2571523579        3.6555323069        8.6836708839
  C         3.8846655567        5.4502532089       17.6329635914
  C         0.0421409957        0.8706783426       17.4732425699
  C         8.1945268811        8.0315410860        8.5511206263
  C         4.0609344879        8.2646663757        4.7508802229
  C         4.6206117784        1.0136576704       22.2197702626
  C         7.4633735945        5.7273196366       20.4113386865
  C         1.3172234597        3.0474310085        5.6383929562
  C         5.2131143259        3.4981724371        7.5329344866
  C         3.2355519771        5.7663538032       19.0297099724
  C         1.1040281310        1.3424847193       18.4793244636
  C         7.2115334777        7.6458707214        7.4110467780
  C         3.0030278034        8.0283234559        5.7950119142
  C         5.7177328948        1.2038332910       21.1625838792
  C         7.9851300921        6.3778292878       19.0745314624
  C         0.7678927947        1.9032294551        6.4579806278
  C         4.8806371957        2.2878259887        6.6528667662
  C         3.5694778785        7.1270541177       19.5417569743
  C         0.7390486648        2.5790342975       19.2557911566
  C         7.5203106816        6.3004526407        6.7559149253
  C         3.4161398750        6.7731163204        6.5536972792
  C         5.2006290805        2.2356631305       20.1123729056
  H         7.0899903243        4.7288250564       22.7594188417
  H         1.8852094115        4.5361094225        3.3071611908
  H         5.6920239004        4.6852429444        9.8700862525
  H         2.2824954101        4.1425837584       16.9472388776
  H         1.2179935898        9.0909595708       15.9091801677
  H         6.7724256072        0.0629543390        9.7621207623
  H         2.7235772580        0.4527262192        3.5501905357
  H         6.0303654924        9.0142428880       23.5503880345
  H         8.0508156570        3.5230832068       21.8993204722
  H         0.9515703174        5.5962862967        4.3992290166
  H         4.5885944660        5.7257511842        8.9475831194
  H         3.7457587205        3.2407583399       17.7029202513
  H         0.8410222297        7.8836311702       17.0437204944
  H         7.5660011419        1.1343154841        8.6041210042
  H         3.8280299590        1.4861046655        4.4541790223
  H         4.8306248681        7.8595613058       22.8260458843
  H         1.2280018472        5.4317615879       21.3191046429
  H         7.7549394124        3.5524548399        5.0124195926
  H         3.2043350603        3.7744048271        8.4400088550
  H         4.9472614408        5.5605027873       17.6875509489
  H         7.5466207060        0.6286842152       18.0945783590
  H         0.8059945180        8.1862961823        8.1567717772
  H         4.9539152069        8.4777892079        5.3134785272
  H         3.7032677020        0.7746656238       21.6634897292
  H         8.5605802636        6.5423817519       22.1996922450
  H         0.1832571895        2.5858528607        3.8802702784
  H         4.2656074241        2.6636542569        9.2433560430
  H         3.5756510399        6.2155752094       16.9542456400
  H        -0.2218447534        1.8020474368       16.8832662738
  H         8.2939899430        7.2387125282        9.3361181256
  H         4.1800096069        7.3109682669        4.0752674953
  H         4.3599671749        1.9493095210       22.7526382050
  H         7.0843791186        4.7176218337       20.1987549068
  H         1.4638231805        3.9400678422        6.2758161009
  H         5.2129621301        4.5417326777        6.9770668914
  H         3.5934840559        4.9590279937       19.6909670556
  H         1.4559096655        0.4934156589       19.1546968458
  H         7.1011856048        8.4962139682        6.7176388718
  H         3.0319167022        8.8908567441        6.5491426551
  H         5.9505708711        0.1785221983       20.7131845070
  H         6.5745768935        6.2760919219       20.7444488692
  H         2.2500875738        2.7670403868        5.1766450354
  H         6.2337492278        3.4121564662        8.0081039728
  H         2.1315801805        5.6962902069       18.9088211205
  H         1.9889027892        1.4414461681       17.9256574539
  H         6.1872586538        7.5458485678        7.8370543917
  H         2.0480739617        7.8967603218        5.3496791249
  H         6.6290563098        1.6546304292       21.6193644961
  H         7.1087211419        6.6091749722       18.5163986181
  H         1.5064429205        1.5633348933        7.1585465554
  H         5.5396896522        2.2834262723        5.7523683533
  H         3.0185499699        7.3392998805       20.4795067057
  H         1.5334394200        2.8522519499       19.9210169462
  H         6.9978370479        6.1535001825        5.7885955343
  H         2.6223450261        6.3339144513        7.2064879850
  H         5.7084249728        2.1954610359       19.1521434638
  H         8.7162374934        5.7780416418       18.4035918700
  H        -0.2140606162        2.1796100501        7.0385186598
  H         3.8625418981        2.3037664429        6.2337536562
  H         4.6379440021        7.3126860689       19.7968704915
  H        -0.1410306476        2.3623809651       19.8933640498
  H         8.5949113980        6.2169568519        6.6066773633
  H         4.2943582328        6.9266659560        7.2186391674
  H         4.1473922370        2.1594157807       19.8465311961
  H         8.4421548392        7.3368725786       19.3339606571
  H         0.4924987286        1.0884505603        5.7663899336
  H         5.0688520717        1.3033232765        7.1354879882
  H         3.3612492843        7.9816471361       18.7908581289
  H         0.5586688495        3.3286778696       18.5124280508
  H         7.1638146416        5.4511081050        7.3776324478
  H         3.6965196218        6.0336465743        5.8180166210
  H         5.4120075889        3.2455821976       20.5496220693
  H         9.2170728968        3.3113487476       23.6706555895
  H         0.2020663913        4.9598306688        1.7613052539
  H         3.6995740184        6.0301875748       10.9748788764
  H         3.9472410691        2.7900800993       15.5502938125
  H        -0.6261044536        7.3323968209       15.4465672670
  H         9.0901787271        1.6260256270       10.2505314480
  H         4.4050408907        1.5748980080        2.2916721804
  H         3.9905648655        8.1859467935       24.9571757799
  H         8.6370932354        4.7309351199       24.5276406971
  H        -1.1275648454        4.8083070220        2.7872517147
  H         4.1330187554        4.5089809621       11.6449638939
  H         3.4002901955        4.3649410202       15.0071038724
  H        -0.6526109241       -0.0791868394       14.8764545743
  H         8.5117900977        9.4831382801       11.3105621672
  H         4.3030665963        8.9555333778        1.9577966364
  H         4.3213955226        0.8056751264       25.0116322191
  H         1.5881651268        4.7263747601       23.4637645585
  H         8.2397227744        6.2422608332        2.8982194716
  H         2.7685840578        4.6348637945       10.5258135669
  H         4.9281630352        4.1928507098       15.5554812907
  H         6.8225617772        8.5101950311       16.1592620833
  H         1.2078778869        0.1520157893       10.0456304390
  H         5.6363189926        0.6190361009        2.9503618497
  H         3.0566735570        9.2278494211       24.1276114255
  N         0.6102036598        4.3101250456       23.6727919048
  N         8.3001331393        5.1845619248        2.7217065315
  N         3.7083031335        5.0038726837       10.7409500819
  N         3.9667249929        3.8318977226       15.7650612984
  N         7.7227459710        8.3387628176       15.7361440225
  N         0.3314522025        0.6425016595       10.2966200758
  N         4.6303992758        0.6647546146        2.7126777700
  N         4.0444503269        9.0411621716       24.3911941163
  I         0.7761916503        0.3182134635       23.1321036820
  I         7.9698233187        8.6042670883        3.1587738105
  I         3.8337680694        8.5930707771        9.6702212259
  I         4.4758943521        0.0152966621       16.2101983401
  I         7.4632516116        4.6588722548       15.7125257101
  I         0.4629282239        4.0905743159        9.5198702949
  I         4.5956482425        4.4057910303        3.3933726868
  I         3.8287152009        4.9138966950       23.1866932481
  I         6.5793590846        2.3622760253       25.4066407940
  I         2.9579004716        7.4494917081        0.8684015267
  I         6.8804525149        7.3012887635       12.2649695561
  I         1.2745512611        1.5481394067       13.8027476748
  I         2.3742697075        6.2135504024       13.9635118805
  I         5.4533727893        2.7104977053       12.5455554952
  I         1.8010971019        2.6319314497        1.3109807781
  I         6.8622007014        6.1597350425       25.7280711950
 Pb        -0.0291615528       -0.0757763513       -0.0799403355
 Pb         4.1430208387        0.1425569384       12.9949960484
 Pb        -0.0057762247        4.2709848641       12.8818643964
 Pb         4.2606391904        4.4159523455        0.2727484474
     156
 i =        1, time =     1000.100, E =      -517.0629896990
  C         8.1119308485        4.4890649503       22.4198260810
  C         0.8365495312        4.7152264503        3.7551042479
  C         4.6322530279        4.8130449691        9.5467060096
  C         3.4109028990        4.1173973068       17.0847463114
  C         0.4619058946        8.7509626075       16.5782304166
  C         7.7127257994        0.3090604803        9.3116783541
  C         3.7649301162        0.4826503867        3.9359222359
  C         4.9697405208        8.8614156676       23.2134105452
  C         8.5475351787        5.5806151986       21.5964439871
  C         0.3012395821        3.4537977816        4.5286828224
  C         4.2575039288        3.6549653524        8.6837800873
  C         3.8848330407        5.4499859383       17.6327634956
  C         0.0422149938        0.8704547545       17.4729225710
  C         8.1945595847        8.0320057207        8.5507063384
  C         4.0606864528        8.2651751526        4.7505096202
  C         4.6206881281        1.0129493735       22.2195150456
  C         7.4644724318        5.7273344569       20.4120087352
  C         1.3175977586        3.0478448533        5.6390305386
  C         5.2136649125        3.4981581214        7.5331707167
  C         3.2359222656        5.7659311783       19.0293235810
  C         1.1039732417        1.3425774850       18.4789005986
  C         7.2116109404        7.6457670293        7.4109789293
  C         3.0021298745        8.0279645354        5.7952798485
  C         5.7178558107        1.2038343569       21.1621684301
  C         7.9843806631        6.3778242087       19.0750829644
  C         0.7677718627        1.9035101230        6.4573670511
  C         4.8815334104        2.2881535631        6.6531911840
  C         3.5695312427        7.1277553484       19.5412955729
  C         0.7394771284        2.5790501336       19.2562561973
  C         7.5197268141        6.2998107317        6.7560844217
  C         3.4156992907        6.7734119720        6.5545290346
  C         5.2009944849        2.2357855739       20.1123796460
  H         7.0891552604        4.7267356435       22.7550455101
  H         1.8851075844        4.5353243419        3.3056333259
  H         5.6923149269        4.6847372871        9.8692808096
  H         2.2829969761        4.1407078283       16.9487779086
  H         1.2169196171        9.0914999195       15.9060773629
  H         6.7721439183        0.0620046558        9.7620801292
  H         2.7242199336        0.4533301967        3.5512392452
  H         6.0280744901        9.0172310357       23.5509447278
  H         8.0509506774        3.5225345341       21.8986655336
  H         0.9516025964        5.5957629721        4.3971494837
  H         4.5889016587        5.7283585162        8.9455266185
  H         3.7469399577        3.2403368139       17.7041892316
  H         0.8389754338        7.8856471275       17.0436204825
  H         7.5674139777        1.1321745154        8.6024884343
  H         3.8300393559        1.4883194462        4.4540805141
  H         4.8322821867        7.8593081255       22.8247384630
  H         1.2289397541        5.4305103744       21.3177956258
  H         7.7543095570        3.5525836070        5.0123734881
  H         3.2029263892        3.7744578307        8.4408113680
  H         4.9472248165        5.5599851801       17.6897053661
  H         7.5483497853        0.6294607446       18.0941320434
  H         0.8088486685        8.1894399803        8.1546407890
  H         4.9563287945        8.4749593194        5.3156264007
  H         3.7041110363        0.7739075391       21.6647244982
  H         8.5607538776        6.5418171540       22.2032264715
  H         0.1828346701        2.5854122360        3.8820413506
  H         4.2668659569        2.6654664477        9.2442892192
  H         3.5760319109        6.2127267130       16.9545882370
  H        -0.2199241861        1.8023961749       16.8837946092
  H         8.2941435039        7.2397343503        9.3341920578
  H         4.1807050430        7.3108317753        4.0758817517
  H         4.3609021311        1.9525688574       22.7544646306
  H         7.0849372140        4.7191586316       20.2004886086
  H         1.4625927157        3.9417859598        6.2776310257
  H         5.2131453914        4.5396828628        6.9763811098
  H         3.5938682947        4.9584947339       19.6900939250
  H         1.4549051334        0.4919812759       19.1540062805
  H         7.1012960329        8.4959417219        6.7166526627
  H         3.0332726385        8.8920738778        6.5501614950
  H         5.9493787500        0.1782611453       20.7111729483
  H         6.5781705555        6.2790927277       20.7451439828
  H         2.2513035132        2.7681641717        5.1758401383
  H         6.2353314710        3.4123693080        8.0095273151
  H         2.1330185991        5.6958079879       18.9107876453
  H         1.9885444708        1.4423563634       17.9251696154
  H         6.1858861411        7.5482047577        7.8358288128
  H         2.0476872173        7.8976636383        5.3499586794
  H         6.6297443233        1.6545934433       21.6197673637
  H         7.1085373174        6.6105303273       18.5157175841
  H         1.5085920324        1.5631136388        7.1603973742
  H         5.5409241434        2.2857157269        5.7531971672
  H         3.0186452490        7.3386004951       20.4785266131
  H         1.5349085126        2.8518381737       19.9197866815
  H         6.9969229894        6.1536727785        5.7897958497
  H         2.6236108992        6.3327621416        7.2069322769
  H         5.7104986069        2.1928753759       19.1533786705
  H         8.7196513625        5.7804011546       18.4030113477
  H        -0.2142918526        2.1785415451        7.0383204855
  H         3.8630506485        2.3012940553        6.2317855467
  H         4.6373990186        7.3154561666       19.7965760995
  H        -0.1414862851        2.3629685920       19.8952762116
  H         8.5950208239        6.2168497437        6.6041276170
  H         4.2954642616        6.9268211556        7.2171648205
  H         4.1471438835        2.1598342461       19.8485311090
  H         8.4432962761        7.3375145999       19.3326737647
  H         0.4957366630        1.0871369246        5.7668513556
  H         5.0700441698        1.3056674877        7.1347391430
  H         3.3617228258        7.9797856068       18.7900425785
  H         0.5564130580        3.3293476461       18.5123449397
  H         7.1635867637        5.4491300039        7.3772605135
  H         3.6952446359        6.0327229611        5.8171767694
  H         5.4143700994        3.2428604213       20.5518531615
  H         9.2164286375        3.3107100413       23.6718433825
  H         0.2026118227        4.9613952701        1.7616789768
  H         3.6994191068        6.0296241286       10.9731100223
  H         3.9473467702        2.7898083886       15.5516349363
  H        -0.6252094266        7.3305855426       15.4461954788
  H         9.0887855684        1.6258744942       10.2493023926
  H         4.4069521978        1.5738437656        2.2930013847
  H         3.9902485511        8.1859230239       24.9574352724
  H         8.6361315504        4.7316084339       24.5264450864
  H        -1.1263638976        4.8079682121        2.7864337587
  H         4.1315452490        4.5081709656       11.6486616153
  H         3.4023391769        4.3632306903       15.0077387674
  H        -0.6542918812       -0.0755495575       14.8777212527
  H         8.5110928820        9.4833301991       11.3088538149
  H         4.3029557822        8.9556450545        1.9582425733
  H         4.3249845520        0.8033759670       25.0118917731
  H         1.5857202673        4.7247690509       23.4623367268
  H         8.2414825569        6.2431569188        2.8971757157
  H         2.7689152856        4.6326393468       10.5257075784
  H         4.9292807558        4.1943720138       15.5563171366
  H         6.8233712298        8.5120415422       16.1598565589
  H         1.2058995704        0.1504654448       10.0455036810
  H         5.6361092786        0.6161670887        2.9474691449
  H         3.0575660637        9.2262413261       24.1286738411
  N         0.6104097252        4.3100544489       23.6726734855
  N         8.3003485856        5.1847161646        2.7220704448
  N         3.7079396910        5.0034909750       10.7409575276
  N         3.9666720462        3.8319824849       15.7647951145
  N         7.7228114118        8.3388687889       15.7363734992
  N         0.3312313836        0.6422087371       10.2969442374
  N         4.6303168318        0.6653453626        2.7123678641
  N         4.0443004812        9.0414583475       24.3913784006
  I         0.7759111059        0.3180399130       23.1321405381
  I         7.9699748417        8.6043606535        3.1588271909
  I         3.8338360942        8.5932104171        9.6702755683
  I         4.4757834721        0.0155080563       16.2100549332
  I         7.4633865028        4.6586049543       15.7126012229
  I         0.4630319368        4.0906627050        9.5200171477
  I         4.5957211548        4.4058634408        3.3933222644
  I         3.8287130185        4.9141120075       23.1867585804
  I         6.5797110090        2.3623072039       25.4066861825
  I         2.9577517393        7.4495408514        0.8685775540
  I         6.8804028033        7.3013556266       12.2647848959
  I         1.2741568109        1.5482748457       13.8024246389
  I         2.3741876315        6.2134883756       13.9635509453
  I         5.4533211662        2.7107165732       12.5455838568
  I         1.8012262392        2.6318226898        1.3109629516
  I         6.8622298786        6.1597253209       25.7282323765
 Pb        -0.0293635984       -0.0758556434       -0.0800774151
 Pb         4.1431052273        0.1425776877       12.9948986790
 Pb        -0.0056967745        4.2709476432       12.8818939593
 Pb         4.2605698117        4.4156637269        0.2727682449
     156
 i =        2, time =     1000.200, E =      -517.0632328834
  C         8.1116365303        4.4888121754       22.4200085815
  C         0.8362167775        4.7145010940        3.7548410038
  C         4.6334624547        4.8131619912        9.5465884012
  C         3.4109751548        4.1170681198       17.0849177293
  C         0.4621966335        8.7509738786       16.5786996815
  C         7.7119179859        0.3088800777        9.3120440848
  C         3.7649615952        0.4823026144        3.9360184870
  C         4.9690199529        8.8611789055       23.2132388777
  C         8.5471712519        5.5812226825       21.5959424516
  C         0.3004523178        3.4541215616        4.5294003084
  C         4.2578507362        3.6543874438        8.6838991749
  C         3.8849886867        5.4497180304       17.6325731395
  C         0.0422797812        0.8702449178       17.4726172026
  C         8.1945912498        8.0324698457        8.5502938972
  C         4.0604414639        8.2656753950        4.7501319840
  C         4.6207668285        1.0122377635       22.2192599746
  C         7.4655833950        5.7273466541       20.4126734150
  C         1.3179586056        3.0482653973        5.6396659475
  C         5.2142156653        3.4981562117        7.5334021428
  C         3.2362941662        5.7655023638       19.0289270597
  C         1.1039176941        1.3426515574       18.4784856046
  C         7.2116835544        7.6456625492        7.4109184680
  C         3.0012457399        8.0276106055        5.7955634382
  C         5.7179744104        1.2038357042       21.1617493543
  C         7.9836418111        6.3778126994       19.0756403267
  C         0.7676358950        1.9037918580        6.4567565511
  C         4.8824345341        2.2884805431        6.6535075781
  C         3.5695873446        7.1284715808       19.5408357442
  C         0.7398993543        2.5790557016       19.2567207582
  C         7.5191412921        6.2991699732        6.7562520327
  C         3.4152571825        6.7737034658        6.5553650977
  C         5.2013657967        2.2359105862       20.1123909080
  H         7.0883153547        4.7246199161       22.7507364728
  H         1.8848628783        4.5345515647        3.3041465898
  H         5.6925641642        4.6842580201        9.8685107433
  H         2.2835881096        4.1388134619       16.9503421486
  H         1.2159326579        9.0920574443       15.9029256161
  H         6.7717912695        0.0610651181        9.7621123030
  H         2.7248776497        0.4539221545        3.5522791657
  H         6.0257308247        9.0201807498       23.5515047580
  H         8.0511170132        3.5219838389       21.8980271825
  H         0.9516380045        5.5952226507        4.3951232613
  H         4.5891964801        5.7309836019        8.9434958832
  H         3.7480618291        3.2399829834       17.7054472193
  H         0.8369751326        7.8875377180       17.0436192753
  H         7.5688351743        1.1300634526        8.6008874188
  H         3.8320533993        1.4904197501        4.4539684871
  H         4.8339224685        7.8590146895       22.8234192512
  H         1.2297332064        5.4292833920       21.3164567619
  H         7.7536508791        3.5527825209        5.0123227722
  H         3.2014813182        3.7745141232        8.4415421029
  H         4.9472961364        5.5594380706       17.6918652361
  H         7.5501290071        0.6302301347       18.0936097577
  H         0.8116341346        8.1925762555        8.1525260454
  H         4.9588316613        8.4721007719        5.3177677639
  H         3.7049290698        0.7731234190       21.6659676676
  H         8.5609222921        6.5411868219       22.2066992334
  H         0.1824196622        2.5849629302        3.8837495608
  H         4.2681262562        2.6673484592        9.2452147525
  H         3.5763756622        6.2099735077       16.9548495123
  H        -0.2180105479        1.8026641341       16.8843357714
  H         8.2942809040        7.2407540965        9.3322171000
  H         4.1813983767        7.3108377861        4.0765913847
  H         4.3618783633        1.9558058076       22.7562808044
  H         7.0854967415        4.7206798893       20.2022019780
  H         1.4613948652        3.9434751413        6.2794343120
  H         5.2133373397        4.5374437878        6.9757381864
  H         3.5942203404        4.9579832360       19.6892557414
  H         1.4538198933        0.4906090843       19.1532887781
  H         7.1014441683        8.4956500662        6.7156486385
  H         3.0345744854        8.8932091769        6.5510767784
  H         5.9481873208        0.1781153550       20.7092031631
  H         6.5817692521        6.2821055408       20.7458656465
  H         2.2525712778        2.7692839525        5.1750167576
  H         6.2368572246        3.4125768030        8.0108894932
  H         2.1344951304        5.6953077399       18.9127667187
  H         1.9883514232        1.4433443370       17.9245784380
  H         6.1845491813        7.5505739470        7.8346211685
  H         2.0471770184        7.8985744167        5.3501997167
  H         6.6304069037        1.6544930381       21.6201549838
  H         7.1082735685        6.6118964729       18.5149450138
  H         1.5107632044        1.5628582847        7.1622988559
  H         5.5421403170        2.2880062314        5.7540571317
  H         3.0187411589        7.3379076710       20.4775252610
  H         1.5364404410        2.8514687506       19.9186019405
  H         6.9960305324        6.1538752889        5.7910050844
  H         2.6248977616        6.3316464217        7.2073418148
  H         5.7126140354        2.1902861291       19.1545867952
  H         8.7229323657        5.7828170800       18.4025568871
  H        -0.2143577919        2.1774542000        7.0380275202
  H         3.8635686132        2.2988423475        6.2298710626
  H         4.6368349129        7.3181701785       19.7962687625
  H        -0.1419316725        2.3635870345       19.8971447085
  H         8.5951556672        6.2167149845        6.6015697112
  H         4.2965338035        6.9269912511        7.2156545763
  H         4.1468603456        2.1602365080       19.8505588588
  H         8.4444599124        7.3381675110       19.3313849008
  H         0.4989734238        1.0858159657        5.7673356015
  H         5.0712078534        1.3080509692        7.1340112682
  H         3.3621879157        7.9778107675       18.7893147401
  H         0.5541221872        3.3301146145       18.5122520537
  H         7.1634073275        5.4472058023        7.3768830238
  H         3.6939833210        6.0317394997        5.8163180868
  H         5.4166786341        3.2401069344       20.5540388692
  H         9.2157809436        3.3099938174       23.6731217867
  H         0.2031415628        4.9629717045        1.7620659160
  H         3.6992235790        6.0290203391       10.9713212032
  H         3.9474632282        2.7896228478       15.5529853843
  H        -0.6243415543        7.3288107974       15.4458335605
  H         9.0873490324        1.6257890694       10.2480514363
  H         4.4088633933        1.5728499773        2.2943368888
  H         3.9899367796        8.1858624749       24.9577384345
  H         8.6351516621        4.7322566222       24.5252732969
  H        -1.1251014074        4.8076467970        2.7856481774
  H         4.1299867137        4.5074167404       11.6521725106
  H         3.4044079112        4.3614788264       15.0084275804
  H        -0.6559889341       -0.0719273189       14.8789526194
  H         8.5104076062        9.4834778859       11.3070919316
  H         4.3029153909        8.9557688783        1.9587597356
  H         4.3286256579        0.8011642142       25.0121910364
  H         1.5832438513        4.7231656078       23.4609324875
  H         8.2432074755        6.2440011147        2.8960518366
  H         2.7691815308        4.6304267499       10.5255969149
  H         4.9304215182        4.1958593423       15.5572121424
  H         6.8240362038        8.5138979588       16.1605130523
  H         1.2039745841        0.1488583314       10.0454087107
  H         5.6359475247        0.6132714607        2.9445643818
  H         3.0584077809        9.2246446041       24.1296731105
  N         0.6106131698        4.3099874405       23.6725389865
  N         8.3005604854        5.1848724188        2.7224319537
  N         3.7075943962        5.0031108631       10.7409737860
  N         3.9666172682        3.8320646726       15.7645131886
  N         7.7228918749        8.3389699762       15.7365949451
  N         0.3310128450        0.6419210382       10.2972729179
  N         4.6302269357        0.6659306356        2.7120575944
  N         4.0441543795        9.0417455959       24.3915568882
  I         0.7756313990        0.3178669694       23.1321772536
  I         7.9701259576        8.6044540883        3.1588804275
  I         3.8339036956        8.5933498044        9.6703301824
  I         4.4756727076        0.0157190937       16.2099118865
  I         7.4635209305        4.6583384495       15.7126768351
  I         0.4631353264        4.0907508271        9.5201639419
  I         4.5957942815        4.4059356617        3.3932718840
  I         3.8287111231        4.9143267310       23.1868237639
  I         6.5800616901        2.3623383600       25.4067315544
  I         2.9576031763        7.4495895190        0.8687530693