 DBCSR| CPU Multiplication driver                                            SMM
 DBCSR| Multrec recursion limit                                              512
 DBCSR| Multiplication stack size                                           1000
 DBCSR| Maximum elements for images                                    UNLIMITED
 DBCSR| Multiplicative factor virtual images                                   1
 DBCSR| Use multiplication densification                                       T
 DBCSR| Multiplication size stacks                                             3
 DBCSR| Use memory pool for CPU allocation                                     F
 DBCSR| Number of 3D layers                                               SINGLE
 DBCSR| Use MPI memory allocation                                              F
 DBCSR| Use RMA algorithm                                                      F
 DBCSR| Use Communication thread                                               T
 DBCSR| Communication thread load                                             87
 DBCSR| MPI: My node id                                                        0
 DBCSR| MPI: Number of nodes                                                  25
 DBCSR| OMP: Current number of threads                                         1
 DBCSR| OMP: Max number of threads                                             1
 DBCSR| Split modifier for TAS multiplication algorithm                  1.0E+00


  **** **** ******  **  PROGRAM STARTED AT               2021-11-29 15:32:33.132
 ***** ** ***  *** **   PROGRAM STARTED ON                                  hpc5
 **    ****   ******    PROGRAM STARTED BY                              97425008
 ***** **    ** ** **   PROGRAM PROCESS ID                                  2914
  **** **  *******  **  PROGRAM STARTED IN /home/97425008/compchem/Tutorials_CP2
                                           K/cp2k_libint_libra/step2_compue_over
                                           laps/job1

 CP2K| version string:                    CP2K version 8.0 (Development Version)
 CP2K| source code revision number:                                  git:14d32d5
 CP2K| cp2kflags: omp libint fftw3 libxc pexsi parallel mpi3 scalapack quip smm_
 CP2K|            dnn smm spglib
 CP2K| is freely available from                            https://www.cp2k.org/
 CP2K| Program compiled at                        Mon Oct 11 11:29:30 +0330 2021
 CP2K| Program compiled on                                           HPC-BAHONAR
 CP2K| Program compiled for                                                local
 CP2K| Data directory path                      /home/97425008/cp2k-v7/cp2k/data
 CP2K| Input file name                                          Diag_libra-4.inp

 GLOBAL| Force Environment number                                              1
 GLOBAL| Basis set file name                                        BASIS_MOLOPT
 GLOBAL| Potential file name                                      GTH_POTENTIALS
 GLOBAL| MM Potential file name                                     MM_POTENTIAL
 GLOBAL| Coordinate file name                                        coord-4.xyz
 GLOBAL| Method name                                                        CP2K
 GLOBAL| Project name                                               Diag_libra-4
 GLOBAL| Preferred FFT library                                             FFTW3
 GLOBAL| Preferred diagonalization lib.                                       SL
 GLOBAL| Run type                                                         ENERGY
 GLOBAL| All-to-all communication in single precision                          F
 GLOBAL| FFTs using library dependent lengths                                  F
 GLOBAL| Global print level                                               MEDIUM
 GLOBAL| MPI I/O enabled                                                       T
 GLOBAL| Total number of message passing processes                            25
 GLOBAL| Number of threads for this process                                    1
 GLOBAL| This output is from process                                           0
 GLOBAL| CPU model name                Intel(R) Xeon(R) CPU E5-2699 v4 @ 2.20GHz

 MEMORY| system memory details [Kb]
 MEMORY|                        rank 0           min           max       average
 MEMORY| MemTotal            132036248     132036248     132036248     132036248
 MEMORY| MemFree              54379144      54379144      54379144      54379144
 MEMORY| Buffers                176416        176416        176416        176416
 MEMORY| Cached               61381040      61381040      61381040      61381040
 MEMORY| Slab                   631336        631336        631336        631336
 MEMORY| SReclaimable           417724        417724        417724        417724
 MEMORY| MemLikelyFree       116354324     116354324     116354324     116354324


 *** Fundamental physical constants (SI units) ***

 *** Literature: B. J. Mohr and B. N. Taylor,
 ***             CODATA recommended values of the fundamental physical
 ***             constants: 2006, Web Version 5.1
 ***             http://physics.nist.gov/constants

 Speed of light in vacuum [m/s]                             2.99792458000000E+08
 Magnetic constant or permeability of vacuum [N/A**2]       1.25663706143592E-06
 Electric constant or permittivity of vacuum [F/m]          8.85418781762039E-12
 Planck constant (h) [J*s]                                  6.62606896000000E-34
 Planck constant (h-bar) [J*s]                              1.05457162825177E-34
 Elementary charge [C]                                      1.60217648700000E-19
 Electron mass [kg]                                         9.10938215000000E-31
 Electron g factor [ ]                                     -2.00231930436220E+00
 Proton mass [kg]                                           1.67262163700000E-27
 Fine-structure constant                                    7.29735253760000E-03
 Rydberg constant [1/m]                                     1.09737315685270E+07
 Avogadro constant [1/mol]                                  6.02214179000000E+23
 Boltzmann constant [J/K]                                   1.38065040000000E-23
 Atomic mass unit [kg]                                      1.66053878200000E-27
 Bohr radius [m]                                            5.29177208590000E-11

 *** Conversion factors ***

 [u] -> [a.u.]                                              1.82288848426455E+03
 [Angstrom] -> [Bohr] = [a.u.]                              1.88972613288564E+00
 [a.u.] = [Bohr] -> [Angstrom]                              5.29177208590000E-01
 [a.u.] -> [s]                                              2.41888432650478E-17
 [a.u.] -> [fs]                                             2.41888432650478E-02
 [a.u.] -> [J]                                              4.35974393937059E-18
 [a.u.] -> [N]                                              8.23872205491840E-08
 [a.u.] -> [K]                                              3.15774647902944E+05
 [a.u.] -> [kJ/mol]                                         2.62549961709828E+03
 [a.u.] -> [kcal/mol]                                       6.27509468713739E+02
 [a.u.] -> [Pa]                                             2.94210107994716E+13
 [a.u.] -> [bar]                                            2.94210107994716E+08
 [a.u.] -> [atm]                                            2.90362800883016E+08
 [a.u.] -> [eV]                                             2.72113838565563E+01
 [a.u.] -> [Hz]                                             6.57968392072181E+15
 [a.u.] -> [1/cm] (wave numbers)                            2.19474631370540E+05
 [a.u./Bohr**2] -> [1/cm]                                   5.14048714338585E+03
 

 CELL_TOP| Volume [angstrom^3]:                                      3375.000000
 CELL_TOP| Vector a [angstrom    15.000     0.000     0.000   |a| =    15.000000
 CELL_TOP| Vector b [angstrom     0.000    15.000     0.000   |b| =    15.000000
 CELL_TOP| Vector c [angstrom     0.000     0.000    15.000   |c| =    15.000000
 CELL_TOP| Angle (b,c), alpha [degree]:                                90.000000
 CELL_TOP| Angle (a,c), beta  [degree]:                                90.000000
 CELL_TOP| Angle (a,b), gamma [degree]:                                90.000000
 CELL_TOP| Numerically orthorhombic:                                         YES

 GENERATE|  Preliminary Number of Bonds generated:                             0
 GENERATE|  Achieved consistency in connectivity generation.

 CELL| Volume [angstrom^3]:                                          3375.000000
 CELL| Vector a [angstrom]:      15.000     0.000     0.000   |a| =    15.000000
 CELL| Vector b [angstrom]:       0.000    15.000     0.000   |b| =    15.000000
 CELL| Vector c [angstrom]:       0.000     0.000    15.000   |c| =    15.000000
 CELL| Angle (b,c), alpha [degree]:                                    90.000000
 CELL| Angle (a,c), beta  [degree]:                                    90.000000
 CELL| Angle (a,b), gamma [degree]:                                    90.000000
 CELL| Numerically orthorhombic:                                             YES

 CELL_REF| Volume [angstrom^3]:                                      3375.000000
 CELL_REF| Vector a [angstrom    15.000     0.000     0.000   |a| =    15.000000
 CELL_REF| Vector b [angstrom     0.000    15.000     0.000   |b| =    15.000000
 CELL_REF| Vector c [angstrom     0.000     0.000    15.000   |c| =    15.000000
 CELL_REF| Angle (b,c), alpha [degree]:                                90.000000
 CELL_REF| Angle (a,c), beta  [degree]:                                90.000000
 CELL_REF| Angle (a,b), gamma [degree]:                                90.000000
 CELL_REF| Numerically orthorhombic:                                         YES

 *******************************************************************************
 *******************************************************************************
 **                                                                           **
 **     #####                         ##              ##                      **
 **    ##   ##            ##          ##              ##                      **
 **   ##     ##                       ##            ######                    **
 **   ##     ##  ##   ##  ##   #####  ##  ##   ####   ##    #####    #####    **
 **   ##     ##  ##   ##  ##  ##      ## ##   ##      ##   ##   ##  ##   ##   **
 **   ##  ## ##  ##   ##  ##  ##      ####     ###    ##   ######   ######    **
 **    ##  ###   ##   ##  ##  ##      ## ##      ##   ##   ##       ##        **
 **     #######   #####   ##   #####  ##  ##  ####    ##    #####   ##        **
 **           ##                                                    ##        **
 **                                                                           **
 **                                                ... make the atoms dance   **
 **                                                                           **
 **            Copyright (C) by CP2K developers group (2000 - 2020)           **
 **                      J. Chem. Phys. 152, 194103 (2020)                    **
 **                                                                           **
 *******************************************************************************

 DFT| Spin unrestricted (spin-polarized) Kohn-Sham calculation               UKS
 DFT| Multiplicity                                                             2
 DFT| Number of spin states                                                    2
 DFT| Charge                                                                   0
 DFT| Self-interaction correction (SIC)                                       NO
 DFT| Cutoffs: density                                              1.000000E-10
 DFT|          gradient                                             1.000000E-10
 DFT|          tau                                                  1.000000E-10
 DFT|          cutoff_smoothing_range                               0.000000E+00
 DFT| XC density smoothing                                                  NONE
 DFT| XC derivatives                                              SPLINE2_SMOOTH
 FUNCTIONAL| ROUTINE=NEW
 FUNCTIONAL| PBE:
 FUNCTIONAL| J.P.Perdew, K.Burke, M.Ernzerhof, Phys. Rev. Letter, vol. 77, n 18,
 FUNCTIONAL|  pp. 3865-3868, (1996){spin polarized}                             
 vdW POTENTIAL|                                                   Pair Potential
 vdW POTENTIAL|          DFT-D3 (Version 3.1)
 vdW POTENTIAL|          Potential Form: S. Grimme et al, JCP 132: 154104 (2010)
 vdW POTENTIAL|          Zero Damping
 vdW POTENTIAL|          Cutoff Radius [Bohr]:                             30.24
 vdW POTENTIAL|          s6 Scaling Factor:                               1.0000
 vdW POTENTIAL|          sr6 Scaling Factor:                              1.2170
 vdW POTENTIAL|          s8 Scaling Factor:                               0.7220
 vdW POTENTIAL|          Cutoff for CN calculation:                   0.1000E-05

 QS| Method:                                                                 GPW
 QS| Density plane wave grid type                        NON-SPHERICAL FULLSPACE
 QS| Number of grid levels:                                                   16
 QS| Density cutoff [a.u.]:                                                150.0
 QS| Multi grid cutoff [a.u.]: 1) grid level                               150.0
 QS|                           2) grid level                                50.0
 QS|                           3) grid level                                16.7
 QS|                           4) grid level                                 5.6
 QS|                           5) grid level                                 1.9
 QS|                           6) grid level                                 0.6
 QS|                           7) grid level                                 0.2
 QS|                           8) grid level                                 0.1
 QS|                           9) grid level                                 0.0
 QS|                          10) grid level                                 0.0
 QS|                          11) grid level                                 0.0
 QS|                          12) grid level                                 0.0
 QS|                          13) grid level                                 0.0
 QS|                          14) grid level                                 0.0
 QS|                          15) grid level                                 0.0
 QS|                          16) grid level                                 0.0
 QS| Grid level progression factor:                                          3.0
 QS| Relative density cutoff [a.u.]:                                        25.0
 QS| Interaction thresholds: eps_pgf_orb:                                1.0E-07
 QS|                         eps_filter_matrix:                          0.0E+00
 QS|                         eps_core_charge:                            1.0E-16
 QS|                         eps_rho_gspace:                             1.0E-14
 QS|                         eps_rho_rspace:                             1.0E-14
 QS|                         eps_gvg_rspace:                             1.0E-07
 QS|                         eps_ppl:                                    1.0E-02
 QS|                         eps_ppnl:                                   1.0E-09


 ATOMIC KIND INFORMATION

  1. Atomic kind: Li                                    Number of atoms:       1

     Orbital Basis Set                                        DZVP-MOLOPT-SR-GTH

       Number of orbital shell sets:                                           1
       Number of orbital shells:                                               4
       Number of primitive Cartesian functions:                                5
       Number of Cartesian basis functions:                                    6
       Number of spherical basis functions:                                    6
       Norm type:                                                              2

       Normalised Cartesian orbitals:

                        Set   Shell   Orbital            Exponent    Coefficient

                          1       1    2s                7.133128       0.845417
                                                         1.999997       0.491024
                                                         0.612031       0.147779
                                                         0.084367       0.023020
                                                         0.032613       0.006029

                          1       2    3s                7.133128       0.356560
                                                         1.999997       0.274758
                                                         0.612031       0.123518
                                                         0.084367      -0.073250
                                                         0.032613      -0.022874

                          1       3    4s                7.133128      -0.506239
                                                         1.999997      -0.114387
                                                         0.612031      -0.015464
                                                         0.084367      -0.188013
                                                         0.032613       0.089984

                          1       4    3px               7.133128      -0.353696
                                                         1.999997      -0.012401
                                                         0.612031      -0.242249
                                                         0.084367      -0.056703
                                                         0.032613       0.000856
                          1       4    3py               7.133128      -0.353696
                                                         1.999997      -0.012401
                                                         0.612031      -0.242249
                                                         0.084367      -0.056703
                                                         0.032613       0.000856
                          1       4    3pz               7.133128      -0.353696
                                                         1.999997      -0.012401
                                                         0.612031      -0.242249
                                                         0.084367      -0.056703
                                                         0.032613       0.000856

     GTH Potential information for                                    GTH-PBE-q3

       Description:                       Goedecker-Teter-Hutter pseudopotential
                                           Goedecker et al., PRB 54, 1703 (1996)
                                          Hartwigsen et al., PRB 58, 3641 (1998)
                                                      Krack, TCA 114, 145 (2005)

       Gaussian exponent of the core charge distribution:               3.125000
       Electronic configuration (s p d ...):                                   3

       Parameters of the local part of the GTH pseudopotential:

                          rloc        C1          C2          C3          C4
                        0.400000  -14.081155    9.626220   -1.783616    0.085152

  2. Atomic kind: C                                     Number of atoms:      60

     Orbital Basis Set                                           DZVP-MOLOPT-GTH

       Number of orbital shell sets:                                           1
       Number of orbital shells:                                               5
       Number of primitive Cartesian functions:                                7
       Number of Cartesian basis functions:                                   14
       Number of spherical basis functions:                                   13
       Norm type:                                                              2

       Normalised Cartesian orbitals:

                        Set   Shell   Orbital            Exponent    Coefficient

                          1       1    2s                6.132625      -0.263661
                                                         2.625196      -0.231112
                                                         1.045457       0.042712
                                                         0.478316       0.306085
                                                         0.178617       0.065483
                                                         0.075145       0.000568
                                                         0.030287       0.000417

                          1       2    3s                6.132625       0.131937
                                                         2.625196       0.414269
                                                         1.045457      -0.593590
                                                         0.478316       0.644922
                                                         0.178617       0.069203
                                                         0.075145      -0.145101
                                                         0.030287       0.008247

                          1       3    3px               6.132625       0.562677
                                                         2.625196       0.633910
                                                         1.045457       0.379157
                                                         0.478316       0.235193
                                                         0.178617       0.052379
                                                         0.075145       0.003677
                                                         0.030287       0.000105
                          1       3    3py               6.132625       0.562677
                                                         2.625196       0.633910
                                                         1.045457       0.379157
                                                         0.478316       0.235193
                                                         0.178617       0.052379
                                                         0.075145       0.003677
                                                         0.030287       0.000105
                          1       3    3pz               6.132625       0.562677
                                                         2.625196       0.633910
                                                         1.045457       0.379157
                                                         0.478316       0.235193
                                                         0.178617       0.052379
                                                         0.075145       0.003677
                                                         0.030287       0.000105

                          1       4    4px               6.132625      -0.472364
                                                         2.625196      -0.221326
                                                         1.045457      -0.481781
                                                         0.478316       0.135466
                                                         0.178617       0.072281
                                                         0.075145       0.024920
                                                         0.030287       0.002706
                          1       4    4py               6.132625      -0.472364
                                                         2.625196      -0.221326
                                                         1.045457      -0.481781
                                                         0.478316       0.135466
                                                         0.178617       0.072281
                                                         0.075145       0.024920
                                                         0.030287       0.002706
                          1       4    4pz               6.132625      -0.472364
                                                         2.625196      -0.221326
                                                         1.045457      -0.481781
                                                         0.478316       0.135466
                                                         0.178617       0.072281
                                                         0.075145       0.024920
                                                         0.030287       0.002706

                          1       5    4dx2              6.132625       0.874783
                                                         2.625196       0.375772
                                                         1.045457       0.653959
                                                         0.478316       0.191007
                                                         0.178617       0.018656
                                                         0.075145       0.003649
                                                         0.030287      -0.000011
                          1       5    4dxy              6.132625       1.515169
                                                         2.625196       0.650856
                                                         1.045457       1.132690
                                                         0.478316       0.330834
                                                         0.178617       0.032314
                                                         0.075145       0.006321
                                                         0.030287      -0.000019
                          1       5    4dxz              6.132625       1.515169
                                                         2.625196       0.650856
                                                         1.045457       1.132690
                                                         0.478316       0.330834
                                                         0.178617       0.032314
                                                         0.075145       0.006321
                                                         0.030287      -0.000019
                          1       5    4dy2              6.132625       0.874783
                                                         2.625196       0.375772
                                                         1.045457       0.653959
                                                         0.478316       0.191007
                                                         0.178617       0.018656
                                                         0.075145       0.003649
                                                         0.030287      -0.000011
                          1       5    4dyz              6.132625       1.515169
                                                         2.625196       0.650856
                                                         1.045457       1.132690
                                                         0.478316       0.330834
                                                         0.178617       0.032314
                                                         0.075145       0.006321
                                                         0.030287      -0.000019
                          1       5    4dz2              6.132625       0.874783
                                                         2.625196       0.375772
                                                         1.045457       0.653959
                                                         0.478316       0.191007
                                                         0.178617       0.018656
                                                         0.075145       0.003649
                                                         0.030287      -0.000011

     GTH Potential information for                                    GTH-PBE-q4

       Description:                       Goedecker-Teter-Hutter pseudopotential
                                           Goedecker et al., PRB 54, 1703 (1996)
                                          Hartwigsen et al., PRB 58, 3641 (1998)
                                                      Krack, TCA 114, 145 (2005)

       Gaussian exponent of the core charge distribution:               4.364419
       Electronic configuration (s p d ...):                               2   2

       Parameters of the local part of the GTH pseudopotential:

                          rloc        C1          C2          C3          C4
                        0.338471   -8.803674    1.339211

       Parameters of the non-local part of the GTH pseudopotential:

                   l      r(l)      h(i,j,l)

                   0    0.302576    9.622487
                   1    0.291507


 MOLECULE KIND INFORMATION


 All atoms are their own molecule, skipping detailed information


 TOTAL NUMBERS AND MAXIMUM NUMBERS

  Total number of            - Atomic kinds:                                   2
                             - Atoms:                                         61
                             - Shell sets:                                    61
                             - Shells:                                       304
                             - Primitive Cartesian functions:                425
                             - Cartesian basis functions:                    846
                             - Spherical basis functions:                    786

  Maximum angular momentum of- Orbital basis functions:                        2
                             - Local part of the GTH pseudopotential:          6
                             - Non-local part of the GTH pseudopotential:      0


 MODULE QUICKSTEP:  ATOMIC COORDINATES IN angstrom

  Atom  Kind  Element       X           Y           Z          Z(eff)       Mass

       1     1 Li   3    7.536435    7.477920    7.497876      3.0000       6.9410
       2     2 C    6    9.213155   10.010090    9.370258      4.0000      12.0107
       3     2 C    6    8.322114   10.801446    8.518523      4.0000      12.0107
       4     2 C    6    7.005335   10.651766    9.049698      4.0000      12.0107
       5     2 C    6    7.037203    9.785627   10.192185      4.0000      12.0107
       6     2 C    6    8.396076    9.375276   10.422646      4.0000      12.0107
       7     2 C    6   10.974034    8.065420    6.941814      4.0000      12.0107
       8     2 C    6   10.485205    9.365869    7.361142      4.0000      12.0107
       9     2 C    6   10.254336    9.334371    8.792522      4.0000      12.0107
      10     2 C    6   10.566512    7.994699    9.232516      4.0000      12.0107
      11     2 C    6   11.003858    7.226553    8.067992      4.0000      12.0107
      12     2 C    6    7.881099   10.049054    5.070963      4.0000      12.0107
      13     2 C    6    7.443162   10.811257    6.198631      4.0000      12.0107
      14     2 C    6    8.548365   10.876207    7.166984      4.0000      12.0107
      15     2 C    6    9.670406   10.183141    6.565954      4.0000      12.0107
      16     2 C    6    9.271566    9.658741    5.271026      4.0000      12.0107
      17     2 C    6    4.380088    9.127569    7.078192      4.0000      12.0107
      18     2 C    6    4.818802    9.661603    8.358043      4.0000      12.0107
      19     2 C    6    5.906448   10.609133    8.132492      4.0000      12.0107
      20     2 C    6    6.127349   10.686399    6.713884      4.0000      12.0107
      21     2 C    6    5.207041    9.769276    6.077607      4.0000      12.0107
      22     2 C    6    5.304368    6.620671   10.158526      4.0000      12.0107
      23     2 C    6    6.285212    7.525472   10.814182      4.0000      12.0107
      24     2 C    6    5.922159    8.873942   10.396983      4.0000      12.0107
      25     2 C    6    4.834410    8.821055    9.455901      4.0000      12.0107
      26     2 C    6    4.474427    7.429739    9.350445      4.0000      12.0107
      27     2 C    6    9.395622    5.932554   10.102293      4.0000      12.0107
      28     2 C    6    9.789718    7.358079   10.226365      4.0000      12.0107
      29     2 C    6    8.644500    8.075395   10.826977      4.0000      12.0107
      30     2 C    6    7.569568    7.127446   11.033025      4.0000      12.0107
      31     2 C    6    8.038096    5.837368   10.611068      4.0000      12.0107
      32     2 C    6    7.980349    5.211388    4.840001      4.0000      12.0107
      33     2 C    6    6.647779    5.633981    4.631542      4.0000      12.0107
      34     2 C    6    5.797776    4.969295    5.617598      4.0000      12.0107
      35     2 C    6    6.700441    4.199236    6.464816      4.0000      12.0107
      36     2 C    6    8.007908    4.304432    5.973380      4.0000      12.0107
      37     2 C    6    9.646328    8.394227    4.835515      4.0000      12.0107
      38     2 C    6    8.723501    7.506502    4.191600      4.0000      12.0107
      39     2 C    6    9.029395    6.120725    4.614038      4.0000      12.0107
      40     2 C    6   10.119000    6.193506    5.546345      4.0000      12.0107
      41     2 C    6   10.550001    7.590316    5.648668      4.0000      12.0107
      42     2 C    6    5.601720    9.026950    4.908364      4.0000      12.0107
      43     2 C    6    5.203722    7.635708    4.774515      4.0000      12.0107
      44     2 C    6    6.328874    6.909152    4.190061      4.0000      12.0107
      45     2 C    6    7.379722    7.846957    3.966975      4.0000      12.0107
      46     2 C    6    6.952868    9.175603    4.396376      4.0000      12.0107
      47     2 C    6    4.034402    6.930413    8.045723      4.0000      12.0107
      48     2 C    6    4.492521    5.642257    7.631088      4.0000      12.0107
      49     2 C    6    4.698033    5.677157    6.190176      4.0000      12.0107
      50     2 C    6    4.437799    7.032761    5.770023      4.0000      12.0107
      51     2 C    6    3.996142    7.800140    6.927642      4.0000      12.0107
      52     2 C    6    7.147230    4.928248    9.979184      4.0000      12.0107
      53     2 C    6    7.562899    4.233969    8.806159      4.0000      12.0107
      54     2 C    6    6.438140    4.123793    7.857680      4.0000      12.0107
      55     2 C    6    5.300406    4.843442    8.415093      4.0000      12.0107
      56     2 C    6    5.743922    5.338419    9.738034      4.0000      12.0107
      57     2 C    6   10.639689    5.847263    7.942526      4.0000      12.0107
      58     2 C    6   10.204056    5.339227    6.678088      4.0000      12.0107
      59     2 C    6    9.105518    4.389863    6.897065      4.0000      12.0107
      60     2 C    6    8.865306    4.323469    8.297374      4.0000      12.0107
      61     2 C    6    9.793288    5.238823    8.982057      4.0000      12.0107




 SCF PARAMETERS         Density guess:                                   RESTART
                        --------------------------------------------------------
                        max_scf:                                              50
                        max_scf_history:                                       0
                        max_diis:                                              4
                        --------------------------------------------------------
                        eps_scf:                                        1.00E-06
                        eps_scf_history:                                0.00E+00
                        eps_diis:                                       1.00E-01
                        eps_eigval:                                     1.00E-05
                        --------------------------------------------------------
                        level_shift [a.u.]:                                 0.00
                        added MOs                                        50   50
                        --------------------------------------------------------
                        Mixing method:                            BROYDEN_MIXING
                                                charge density mixing in g-space
                        --------------------------------------------------------
                        No outer SCF

 PW_GRID| Information for grid number                                          1
 PW_GRID| Grid distributed over                                    25 processors
 PW_GRID| Real space group dimensions                                    25    1
 PW_GRID| the grid is blocked:                                                NO
 PW_GRID| Cutoff [a.u.]                                                    300.0
 PW_GRID| spherical cutoff:                                                   NO
 PW_GRID|   Bounds   1           -112     112                Points:         225
 PW_GRID|   Bounds   2           -112     112                Points:         225
 PW_GRID|   Bounds   3           -112     112                Points:         225
 PW_GRID| Volume element (a.u.^3)  0.2000E-02     Volume (a.u.^3)     22775.6292
 PW_GRID| Grid span                                                    FULLSPACE
 PW_GRID|   Distribution                         Average         Max         Min
 PW_GRID|   G-Vectors                           455625.0      455625      455625
 PW_GRID|   G-Rays                                2025.0        2025        2025
 PW_GRID|   Real Space Points                   455625.0      455625      455625

 PW_GRID| Information for grid number                                          2
 PW_GRID| Number of the reference grid                                         1
 PW_GRID| Grid distributed over                                    25 processors
 PW_GRID| Real space group dimensions                                    25    1
 PW_GRID| the grid is blocked:                                                NO
 PW_GRID| Cutoff [a.u.]                                                    150.0
 PW_GRID| spherical cutoff:                                                   NO
 PW_GRID|   Bounds   1            -80      79                Points:         160
 PW_GRID|   Bounds   2            -80      79                Points:         160
 PW_GRID|   Bounds   3            -80      79                Points:         160
 PW_GRID| Volume element (a.u.^3)  0.5560E-02     Volume (a.u.^3)     22775.6292
 PW_GRID| Grid span                                                    FULLSPACE
 PW_GRID|   Distribution                         Average         Max         Min
 PW_GRID|   G-Vectors                           163840.0      164000      163680
 PW_GRID|   G-Rays                                1024.0        1025        1023
 PW_GRID|   Real Space Points                   163840.0      179200      153600

 PW_GRID| Information for grid number                                          3
 PW_GRID| Number of the reference grid                                         2
 PW_GRID| Grid distributed over                                    25 processors
 PW_GRID| Real space group dimensions                                    25    1
 PW_GRID| the grid is blocked:                                                NO
 PW_GRID| Cutoff [a.u.]                                                     50.0
 PW_GRID| spherical cutoff:                                                   NO
 PW_GRID|   Bounds   1            -48      47                Points:          96
 PW_GRID|   Bounds   2            -48      47                Points:          96
 PW_GRID|   Bounds   3            -48      47                Points:          96
 PW_GRID| Volume element (a.u.^3)  0.2574E-01     Volume (a.u.^3)     22775.6292
 PW_GRID| Grid span                                                    FULLSPACE
 PW_GRID|   Distribution                         Average         Max         Min
 PW_GRID|   G-Vectors                            35389.4       35424       35328
 PW_GRID|   G-Rays                                 368.6         369         368
 PW_GRID|   Real Space Points                    35389.4       36864       27648

 PW_GRID| Information for grid number                                          4
 PW_GRID| Number of the reference grid                                         2
 PW_GRID| Grid distributed over                                    25 processors
 PW_GRID| Real space group dimensions                                    25    1
 PW_GRID| the grid is blocked:                                                NO
 PW_GRID| Cutoff [a.u.]                                                     16.7
 PW_GRID| spherical cutoff:                                                   NO
 PW_GRID|   Bounds   1            -27      26                Points:          54
 PW_GRID|   Bounds   2            -27      26                Points:          54
 PW_GRID|   Bounds   3            -27      26                Points:          54
 PW_GRID| Volume element (a.u.^3)  0.1446         Volume (a.u.^3)     22775.6292
 PW_GRID| Grid span                                                    FULLSPACE
 PW_GRID|   Distribution                         Average         Max         Min
 PW_GRID|   G-Vectors                             6298.6        6318        6264
 PW_GRID|   G-Rays                                 116.6         117         116
 PW_GRID|   Real Space Points                     6298.6        8748        5832

 PW_GRID| Information for grid number                                          5
 PW_GRID| Number of the reference grid                                         2
 PW_GRID| Grid distributed over                                    25 processors
 PW_GRID| Real space group dimensions                                    25    1
 PW_GRID| the grid is blocked:                                                NO
 PW_GRID| Cutoff [a.u.]                                                      5.6
 PW_GRID| spherical cutoff:                                                   NO
 PW_GRID|   Bounds   1            -16      15                Points:          32
 PW_GRID|   Bounds   2            -16      15                Points:          32
 PW_GRID|   Bounds   3            -16      15                Points:          32
 PW_GRID| Volume element (a.u.^3)  0.6951         Volume (a.u.^3)     22775.6292
 PW_GRID| Grid span                                                    FULLSPACE
 PW_GRID|   Distribution                         Average         Max         Min
 PW_GRID|   G-Vectors                             1310.7        1344        1280
 PW_GRID|   G-Rays                                  41.0          42          40
 PW_GRID|   Real Space Points                     1310.7        2048        1024

 PW_GRID| Information for grid number                                          6
 PW_GRID| Number of the reference grid                                         2
 PW_GRID| Grid distributed over                                    25 processors
 PW_GRID| Real space group dimensions                                    25    1
 PW_GRID| the grid is blocked:                                                NO
 PW_GRID| Cutoff [a.u.]                                                      1.9
 PW_GRID| spherical cutoff:                                                   NO
 PW_GRID|   Bounds   1             -9       8                Points:          18
 PW_GRID|   Bounds   2             -9       8                Points:          18
 PW_GRID|   Bounds   3             -9       8                Points:          18
 PW_GRID| Volume element (a.u.^3)   3.905         Volume (a.u.^3)     22775.6292
 PW_GRID| Grid span                                                    FULLSPACE
 PW_GRID|   Distribution                         Average         Max         Min
 PW_GRID|   G-Vectors                              233.3         252         216
 PW_GRID|   G-Rays                                  13.0          14          12
 PW_GRID|   Real Space Points                      233.3         324           0

 PW_GRID| Information for grid number                                          7
 PW_GRID| Number of the reference grid                                         2
 PW_GRID| Grid distributed over                                    25 processors
 PW_GRID| Real space group dimensions                                    25    1
 PW_GRID| the grid is blocked:                                                NO
 PW_GRID| Cutoff [a.u.]                                                      0.6
 PW_GRID| spherical cutoff:                                                   NO
 PW_GRID|   Bounds   1             -6       5                Points:          12
 PW_GRID|   Bounds   2             -6       5                Points:          12
 PW_GRID|   Bounds   3             -6       5                Points:          12
 PW_GRID| Volume element (a.u.^3)   13.18         Volume (a.u.^3)     22775.6292
 PW_GRID| Grid span                                                    FULLSPACE
 PW_GRID|   Distribution                         Average         Max         Min
 PW_GRID|   G-Vectors                               69.1          84          48
 PW_GRID|   G-Rays                                   5.8           7           4
 PW_GRID|   Real Space Points                       69.1         144           0

 PW_GRID| Information for grid number                                          8
 PW_GRID| Number of the reference grid                                         2
 PW_GRID| Grid distributed over                                    25 processors
 PW_GRID| Real space group dimensions                                    25    1
 PW_GRID| the grid is blocked:                                                NO
 PW_GRID| Cutoff [a.u.]                                                      0.2
 PW_GRID| spherical cutoff:                                                   NO
 PW_GRID|   Bounds   1             -3       2                Points:           6
 PW_GRID|   Bounds   2             -3       2                Points:           6
 PW_GRID|   Bounds   3             -3       2                Points:           6
 PW_GRID| Volume element (a.u.^3)   105.4         Volume (a.u.^3)     22775.6292
 PW_GRID| Grid span                                                    FULLSPACE
 PW_GRID|   Distribution                         Average         Max         Min
 PW_GRID|   G-Vectors                                8.6          12           6
 PW_GRID|   G-Rays                                   1.4           2           1
 PW_GRID|   Real Space Points                        8.6          36           0

 PW_GRID| Information for grid number                                          9
 PW_GRID| Number of the reference grid                                         2
 PW_GRID| Grid distributed over                                    25 processors
 PW_GRID| Real space group dimensions                                    25    1
 PW_GRID| the grid is blocked:                                                NO
 PW_GRID| Cutoff [a.u.]                                                      0.1
 PW_GRID| spherical cutoff:                                                   NO
 PW_GRID|   Bounds   1             -2       1                Points:           4
 PW_GRID|   Bounds   2             -2       1                Points:           4
 PW_GRID|   Bounds   3             -2       1                Points:           4
 PW_GRID| Volume element (a.u.^3)   355.9         Volume (a.u.^3)     22775.6292
 PW_GRID| Grid span                                                    FULLSPACE
 PW_GRID|   Distribution                         Average         Max         Min
 PW_GRID|   G-Vectors                                2.6           4           0
 PW_GRID|   G-Rays                                   0.6           1           0
 PW_GRID|   Real Space Points                        2.6          16           0

 PW_GRID| Information for grid number                                         10
 PW_GRID| Number of the reference grid                                         2
 PW_GRID| Grid distributed over                                    25 processors
 PW_GRID| Real space group dimensions                                    25    1
 PW_GRID| the grid is blocked:                                                NO
 PW_GRID| Cutoff [a.u.]                                                      0.0
 PW_GRID| spherical cutoff:                                                   NO
 PW_GRID|   Bounds   1             -1       0                Points:           2
 PW_GRID|   Bounds   2             -1       0                Points:           2
 PW_GRID|   Bounds   3             -1       0                Points:           2
 PW_GRID| Volume element (a.u.^3)   2847.         Volume (a.u.^3)     22775.6292
 PW_GRID| Grid span                                                    FULLSPACE
 PW_GRID|   Distribution                         Average         Max         Min
 PW_GRID|   G-Vectors                                0.3           2           0
 PW_GRID|   G-Rays                                   0.2           1           0
 PW_GRID|   Real Space Points                        0.3           4           0

 PW_GRID| Information for grid number                                         11
 PW_GRID| Number of the reference grid                                         2
 PW_GRID| Grid distributed over                                    25 processors
 PW_GRID| Real space group dimensions                                    25    1
 PW_GRID| the grid is blocked:                                                NO
 PW_GRID| Cutoff [a.u.]                                                      0.0
 PW_GRID| spherical cutoff:                                                   NO
 PW_GRID|   Bounds   1             -1       0                Points:           2
 PW_GRID|   Bounds   2             -1       0                Points:           2
 PW_GRID|   Bounds   3             -1       0                Points:           2
 PW_GRID| Volume element (a.u.^3)   2847.         Volume (a.u.^3)     22775.6292
 PW_GRID| Grid span                                                    FULLSPACE
 PW_GRID|   Distribution                         Average         Max         Min
 PW_GRID|   G-Vectors                                0.3           2           0
 PW_GRID|   G-Rays                                   0.2           1           0
 PW_GRID|   Real Space Points                        0.3           4           0

 PW_GRID| Information for grid number                                         12
 PW_GRID| Number of the reference grid                                         2
 PW_GRID| Grid distributed over                                    25 processors
 PW_GRID| Real space group dimensions                                    25    1
 PW_GRID| the grid is blocked:                                                NO
 PW_GRID| Cutoff [a.u.]                                                      0.0
 PW_GRID| spherical cutoff:                                                   NO
 PW_GRID|   Bounds   1             -1       0                Points:           2
 PW_GRID|   Bounds   2             -1       0                Points:           2
 PW_GRID|   Bounds   3             -1       0                Points:           2
 PW_GRID| Volume element (a.u.^3)   2847.         Volume (a.u.^3)     22775.6292
 PW_GRID| Grid span                                                    FULLSPACE
 PW_GRID|   Distribution                         Average         Max         Min
 PW_GRID|   G-Vectors                                0.3           2           0
 PW_GRID|   G-Rays                                   0.2           1           0
 PW_GRID|   Real Space Points                        0.3           4           0

 PW_GRID| Information for grid number                                         13
 PW_GRID| Number of the reference grid                                         2
 PW_GRID| Grid distributed over                                    25 processors
 PW_GRID| Real space group dimensions                                    25    1
 PW_GRID| the grid is blocked:                                                NO
 PW_GRID| Cutoff [a.u.]                                                      0.0
 PW_GRID| spherical cutoff:                                                   NO
 PW_GRID|   Bounds   1             -1       0                Points:           2
 PW_GRID|   Bounds   2             -1       0                Points:           2
 PW_GRID|   Bounds   3             -1       0                Points:           2
 PW_GRID| Volume element (a.u.^3)   2847.         Volume (a.u.^3)     22775.6292
 PW_GRID| Grid span                                                    FULLSPACE
 PW_GRID|   Distribution                         Average         Max         Min
 PW_GRID|   G-Vectors                                0.3           2           0
 PW_GRID|   G-Rays                                   0.2           1           0
 PW_GRID|   Real Space Points                        0.3           4           0

 PW_GRID| Information for grid number                                         14
 PW_GRID| Number of the reference grid                                         2
 PW_GRID| Grid distributed over                                    25 processors
 PW_GRID| Real space group dimensions                                    25    1
 PW_GRID| the grid is blocked:                                                NO
 PW_GRID| Cutoff [a.u.]                                                      0.0
 PW_GRID| spherical cutoff:                                                   NO
 PW_GRID|   Bounds   1             -1       0                Points:           2
 PW_GRID|   Bounds   2             -1       0                Points:           2
 PW_GRID|   Bounds   3             -1       0                Points:           2
 PW_GRID| Volume element (a.u.^3)   2847.         Volume (a.u.^3)     22775.6292
 PW_GRID| Grid span                                                    FULLSPACE
 PW_GRID|   Distribution                         Average         Max         Min
 PW_GRID|   G-Vectors                                0.3           2           0
 PW_GRID|   G-Rays                                   0.2           1           0
 PW_GRID|   Real Space Points                        0.3           4           0

 PW_GRID| Information for grid number                                         15
 PW_GRID| Number of the reference grid                                         2
 PW_GRID| Grid distributed over                                    25 processors
 PW_GRID| Real space group dimensions                                    25    1
 PW_GRID| the grid is blocked:                                                NO
 PW_GRID| Cutoff [a.u.]                                                      0.0
 PW_GRID| spherical cutoff:                                                   NO
 PW_GRID|   Bounds   1             -1       0                Points:           2
 PW_GRID|   Bounds   2             -1       0                Points:           2
 PW_GRID|   Bounds   3             -1       0                Points:           2
 PW_GRID| Volume element (a.u.^3)   2847.         Volume (a.u.^3)     22775.6292
 PW_GRID| Grid span                                                    FULLSPACE
 PW_GRID|   Distribution                         Average         Max         Min
 PW_GRID|   G-Vectors                                0.3           2           0
 PW_GRID|   G-Rays                                   0.2           1           0
 PW_GRID|   Real Space Points                        0.3           4           0

 PW_GRID| Information for grid number                                         16
 PW_GRID| Number of the reference grid                                         2
 PW_GRID| Grid distributed over                                    25 processors
 PW_GRID| Real space group dimensions                                    25    1
 PW_GRID| the grid is blocked:                                                NO
 PW_GRID| Cutoff [a.u.]                                                      0.0
 PW_GRID| spherical cutoff:                                                   NO
 PW_GRID|   Bounds   1             -1       0                Points:           2
 PW_GRID|   Bounds   2             -1       0                Points:           2
 PW_GRID|   Bounds   3             -1       0                Points:           2
 PW_GRID| Volume element (a.u.^3)   2847.         Volume (a.u.^3)     22775.6292
 PW_GRID| Grid span                                                    FULLSPACE
 PW_GRID|   Distribution                         Average         Max         Min
 PW_GRID|   G-Vectors                                0.3           2           0
 PW_GRID|   G-Rays                                   0.2           1           0
 PW_GRID|   Real Space Points                        0.3           4           0

 PW_GRID| Information for grid number                                         17
 PW_GRID| Number of the reference grid                                         2
 PW_GRID| Grid distributed over                                    25 processors
 PW_GRID| Real space group dimensions                                    25    1
 PW_GRID| the grid is blocked:                                                NO
 PW_GRID| Cutoff [a.u.]                                                      0.0
 PW_GRID| spherical cutoff:                                                   NO
 PW_GRID|   Bounds   1             -1       0                Points:           2
 PW_GRID|   Bounds   2             -1       0                Points:           2
 PW_GRID|   Bounds   3             -1       0                Points:           2
 PW_GRID| Volume element (a.u.^3)   2847.         Volume (a.u.^3)     22775.6292
 PW_GRID| Grid span                                                    FULLSPACE
 PW_GRID|   Distribution                         Average         Max         Min
 PW_GRID|   G-Vectors                                0.3           2           0
 PW_GRID|   G-Rays                                   0.2           1           0
 PW_GRID|   Real Space Points                        0.3           4           0

 POISSON| Solver                                          Martyna-Tuckerman (MT)
 POISSON| MT| Alpha                                                        7.000
 POISSON| MT| Relative cutoff                                                2.0
 POISSON| Periodicity                                                       NONE

 RS_GRID| Information for grid number                                          2
 RS_GRID|   Bounds   1            -80      79                Points:         160
 RS_GRID|   Bounds   2            -80      79                Points:         160
 RS_GRID|   Bounds   3            -80      79                Points:         160
 RS_GRID| Real space distribution over                                  5 groups
 RS_GRID| Real space distribution along direction                              2
 RS_GRID| Border size                                                         27
 RS_GRID| Real space distribution over                                  5 groups
 RS_GRID| Real space distribution along direction                              3
 RS_GRID| Border size                                                         27
 RS_GRID|   Distribution                         Average         Max         Min
 RS_GRID|   Planes                                  86.0          86          86
 RS_GRID|   Distribution                         Average         Max         Min
 RS_GRID|   Planes                                  86.0          86          86

 RS_GRID| Information for grid number                                          3
 RS_GRID|   Bounds   1            -48      47                Points:          96
 RS_GRID|   Bounds   2            -48      47                Points:          96
 RS_GRID|   Bounds   3            -48      47                Points:          96
 RS_GRID| Real space fully replicated
 RS_GRID| Group size                                                           1

 RS_GRID| Information for grid number                                          4
 RS_GRID|   Bounds   1            -27      26                Points:          54
 RS_GRID|   Bounds   2            -27      26                Points:          54
 RS_GRID|   Bounds   3            -27      26                Points:          54
 RS_GRID| Real space fully replicated
 RS_GRID| Group size                                                           1

 RS_GRID| Information for grid number                                          5
 RS_GRID|   Bounds   1            -16      15                Points:          32
 RS_GRID|   Bounds   2            -16      15                Points:          32
 RS_GRID|   Bounds   3            -16      15                Points:          32
 RS_GRID| Real space fully replicated
 RS_GRID| Group size                                                           1

 RS_GRID| Information for grid number                                          6
 RS_GRID|   Bounds   1             -9       8                Points:          18
 RS_GRID|   Bounds   2             -9       8                Points:          18
 RS_GRID|   Bounds   3             -9       8                Points:          18
 RS_GRID| Real space fully replicated
 RS_GRID| Group size                                                           1

 RS_GRID| Information for grid number                                          7
 RS_GRID|   Bounds   1             -6       5                Points:          12
 RS_GRID|   Bounds   2             -6       5                Points:          12
 RS_GRID|   Bounds   3             -6       5                Points:          12
 RS_GRID| Real space fully replicated
 RS_GRID| Group size                                                           1

 RS_GRID| Information for grid number                                          8
 RS_GRID|   Bounds   1             -3       2                Points:           6
 RS_GRID|   Bounds   2             -3       2                Points:           6
 RS_GRID|   Bounds   3             -3       2                Points:           6
 RS_GRID| Real space fully replicated
 RS_GRID| Group size                                                           1

 RS_GRID| Information for grid number                                          9
 RS_GRID|   Bounds   1             -2       1                Points:           4
 RS_GRID|   Bounds   2             -2       1                Points:           4
 RS_GRID|   Bounds   3             -2       1                Points:           4
 RS_GRID| Real space fully replicated
 RS_GRID| Group size                                                           1

 RS_GRID| Information for grid number                                         10
 RS_GRID|   Bounds   1             -1       0                Points:           2
 RS_GRID|   Bounds   2             -1       0                Points:           2
 RS_GRID|   Bounds   3             -1       0                Points:           2
 RS_GRID| Real space fully replicated
 RS_GRID| Group size                                                           1

 RS_GRID| Information for grid number                                         11
 RS_GRID|   Bounds   1             -1       0                Points:           2
 RS_GRID|   Bounds   2             -1       0                Points:           2
 RS_GRID|   Bounds   3             -1       0                Points:           2
 RS_GRID| Real space fully replicated
 RS_GRID| Group size                                                           1

 RS_GRID| Information for grid number                                         12
 RS_GRID|   Bounds   1             -1       0                Points:           2
 RS_GRID|   Bounds   2             -1       0                Points:           2
 RS_GRID|   Bounds   3             -1       0                Points:           2
 RS_GRID| Real space fully replicated
 RS_GRID| Group size                                                           1

 RS_GRID| Information for grid number                                         13
 RS_GRID|   Bounds   1             -1       0                Points:           2
 RS_GRID|   Bounds   2             -1       0                Points:           2
 RS_GRID|   Bounds   3             -1       0                Points:           2
 RS_GRID| Real space fully replicated
 RS_GRID| Group size                                                           1

 RS_GRID| Information for grid number                                         14
 RS_GRID|   Bounds   1             -1       0                Points:           2
 RS_GRID|   Bounds   2             -1       0                Points:           2
 RS_GRID|   Bounds   3             -1       0                Points:           2
 RS_GRID| Real space fully replicated
 RS_GRID| Group size                                                           1

 RS_GRID| Information for grid number                                         15
 RS_GRID|   Bounds   1             -1       0                Points:           2
 RS_GRID|   Bounds   2             -1       0                Points:           2
 RS_GRID|   Bounds   3             -1       0                Points:           2
 RS_GRID| Real space fully replicated
 RS_GRID| Group size                                                           1

 RS_GRID| Information for grid number                                         16
 RS_GRID|   Bounds   1             -1       0                Points:           2
 RS_GRID|   Bounds   2             -1       0                Points:           2
 RS_GRID|   Bounds   3             -1       0                Points:           2
 RS_GRID| Real space fully replicated
 RS_GRID| Group size                                                           1

 RS_GRID| Information for grid number                                         17
 RS_GRID|   Bounds   1             -1       0                Points:           2
 RS_GRID|   Bounds   2             -1       0                Points:           2
 RS_GRID|   Bounds   3             -1       0                Points:           2
 RS_GRID| Real space fully replicated
 RS_GRID| Group size                                                           1

 Spin 1

 Number of electrons:                                                        122
 Number of occupied orbitals:                                                122
 Number of molecular orbitals:                                               172

 Spin 2

 Number of electrons:                                                        121
 Number of occupied orbitals:                                                121
 Number of molecular orbitals:                                               171

 Number of orbital functions:                                                786
 Number of independent orbital functions:                                    786

 Extrapolation method: initial_guess


 SCF WAVEFUNCTION OPTIMIZATION

  Step     Update method      Time    Convergence         Total energy    Change
  ------------------------------------------------------------------------------
     1 NoMix/Dav.  0.30E+00    2.8     0.01256323      -347.7255885717 -3.48E+02
     2 Broy./Dav.  0.30E+00    2.8     0.01973032      -346.9918921300  7.34E-01
     3 Broy./Dav.  0.30E+00    2.9     0.02087916      -347.3737412657 -3.82E-01
     4 Broy./Dav.  0.30E+00    3.2     0.01567940      -347.4464330614 -7.27E-02
     5 Broy./Dav.  0.30E+00    3.0     0.01169717      -347.4078870882  3.85E-02
     6 Broy./Dav.  0.30E+00    3.0     0.01673991      -347.5030977167 -9.52E-02
     7 Broy./Dav.  0.30E+00    3.1     0.01271003      -347.3281766737  1.75E-01
     8 Broy./Dav.  0.30E+00    3.0     0.03145008      -347.4503702266 -1.22E-01
     9 Broy./Dav.  0.30E+00    3.5     0.02105990      -347.4116600064  3.87E-02
    10 Broy./Dav.  0.30E+00    3.4     0.01093506      -347.3624887881  4.92E-02
    11 Broy./Dav.  0.30E+00    3.4     0.08872226      -347.4199087360 -5.74E-02
    12 Broy./Dav.  0.30E+00    3.3     0.10104672      -347.2301067938  1.90E-01
    13 Broy./Dav.  0.30E+00    3.3     0.01165021      -347.2605091572 -3.04E-02
    14 Broy./Dav.  0.30E+00    3.2     0.00676809      -347.2452242921  1.53E-02
    15 Broy./Dav.  0.30E+00    3.1     0.01004593      -347.3057312788 -6.05E-02
    16 Broy./Dav.  0.30E+00    3.1     0.01055354      -347.3024561473  3.28E-03
    17 Broy./Dav.  0.30E+00    3.1     0.00620661      -347.3419528629 -3.95E-02
    18 Broy./Dav.  0.30E+00    3.1     0.00614688      -347.3395951269  2.36E-03
    19 Broy./Dav.  0.30E+00    3.1     0.00502724      -347.3459772715 -6.38E-03
    20 Broy./Dav.  0.30E+00    4.3     0.00698427      -347.4459494423 -1.00E-01
    21 Broy./Dav.  0.30E+00    3.7     0.01121851      -347.5187721667 -7.28E-02
    22 Broy./Dav.  0.30E+00    3.4     0.01023585      -347.4153757862  1.03E-01
    23 Broy./Dav.  0.30E+00    3.5     0.00721820      -347.4067448186  8.63E-03
    24 Broy./Dav.  0.30E+00    3.7     0.00744954      -347.6258137808 -2.19E-01
    25 Broy./Dav.  0.30E+00    3.5     0.04126930      -347.3884595292  2.37E-01
    26 Broy./Dav.  0.30E+00    3.4     0.04939425      -347.2047133525  1.84E-01
    27 Broy./Dav.  0.30E+00    3.4     0.01122609      -347.3985373943 -1.94E-01
    28 Broy./Dav.  0.30E+00    3.5     0.01261001      -347.5472999674 -1.49E-01
    29 Broy./Dav.  0.30E+00    3.5     0.02026177      -347.3824274903  1.65E-01
    30 Broy./Dav.  0.30E+00    3.7     0.00615098      -347.5563706122 -1.74E-01
    31 Broy./Dav.  0.30E+00    3.6     0.01395827      -347.5375459238  1.88E-02
    32 Broy./Dav.  0.30E+00    3.5     0.01862525      -347.3784899011  1.59E-01
    33 Broy./Dav.  0.30E+00    3.6     0.00682203      -347.5362401590 -1.58E-01
    34 Broy./Dav.  0.30E+00    3.7     0.00924239      -347.4547606284  8.15E-02
    35 Broy./Dav.  0.30E+00    3.6     0.00582951      -347.4104376764  4.43E-02
    36 Broy./Dav.  0.30E+00    3.7     0.00346472      -347.5158988870 -1.05E-01
    37 Broy./Dav.  0.30E+00    3.4     0.00946242      -347.5153583014  5.41E-04
    38 Broy./Dav.  0.30E+00    3.5     0.00417994      -347.5189018622 -3.54E-03
    39 Broy./Dav.  0.30E+00    3.5     0.00382911      -347.6551971225 -1.36E-01
    40 Broy./Dav.  0.30E+00    4.0     0.00563899      -347.6829766913 -2.78E-02
    41 Broy./Dav.  0.30E+00    3.5     0.00668604      -347.7402307987 -5.73E-02
    42 Broy./Dav.  0.30E+00    3.5     0.00360917      -347.7833336284 -4.31E-02
    43 Broy./Dav.  0.30E+00    3.6     0.00588595      -347.7595151745  2.38E-02
    44 Broy./Dav.  0.30E+00    3.7     0.01030669      -347.8065652807 -4.71E-02
    45 Broy./Dav.  0.30E+00    3.4     0.01457538      -347.4013087135  4.05E-01
    46 Broy./Dav.  0.30E+00    3.5     0.00838619      -347.6994143528 -2.98E-01
    47 Broy./Dav.  0.30E+00    3.3     0.01533321      -347.5368843421  1.63E-01
    48 Broy./Dav.  0.30E+00    3.3     0.01738434      -347.3942686011  1.43E-01
    49 Broy./Dav.  0.30E+00    3.5     0.00551476      -347.6125211253 -2.18E-01
    50 Broy./Dav.  0.30E+00    3.5     0.01008388      -347.5892768506  2.32E-02

  Leaving inner SCF loop after reaching    50 steps.


  Electronic density on regular grids:       -243.2583548579       -0.2583548579
  Core density on regular grids:              243.0000000000       -0.0000000000
  Total charge density on r-space grids:       -0.2583548579
  Total charge density g-space grids:          -0.2583548579

  Overlap energy of the core charge distribution:               0.00000975306402
  Self energy of the core charge distribution:               -806.44760842082485
  Core Hamiltonian energy:                                    252.29316176074025
  Hartree energy:                                             313.40199190342048
  Exchange-correlation energy:                               -106.75411437300929
  Dispersion energy:                                           -0.08271747397399

  Total energy:                                              -347.58927685058353

 *** WARNING in qs_scf.F:576 :: SCF run NOT converged ***


   Calculate PDOS at iteration step                                  0
  Reached convergence in            1  iterations 

   Compute          614    additional unoccupied KS orbitals

              ---- PDOS: start iteration on the KS states --- 

   Calculate PDOS at iteration step                                  0
  Reached convergence in            1  iterations 

   Compute          615    additional unoccupied KS orbitals

              ---- PDOS: start iteration on the KS states --- 

  Integrated absolute spin density  :                               1.6281891895

 *** WARNING in s_square_methods.F:99 :: Found non-uniform occupation ***


 *** WARNING in s_square_methods.F:101 :: Found non-uniform occupation ***

  Ideal and single determinant S**2 :                    0.750000      47.359462

 ENERGY| Total FORCE_EVAL ( QS ) energy [a.u.]:             -347.589276850583531

 -------------------------------------------------------------------------------
 -                                                                             -
 -                                DBCSR STATISTICS                             -
 -                                                                             -
 -------------------------------------------------------------------------------
 COUNTER                                    TOTAL       BLAS       SMM       ACC
 flops     6 x     7 x     6                 2016       0.0%    100.0%      0.0%
 flops     6 x     7 x     7                 2352       0.0%    100.0%      0.0%
 flops     6 x     6 x     6                 3456       0.0%    100.0%      0.0%
 flops     6 x     6 x    15               108000       0.0%    100.0%      0.0%
 flops     6 x    15 x     6               108000       0.0%    100.0%      0.0%
 flops     6 x     6 x    16               115200       0.0%    100.0%      0.0%
 flops     6 x    16 x     6               115200       0.0%    100.0%      0.0%
 flops     6 x     6 x    43               157896       0.0%    100.0%      0.0%
 flops     6 x     6 x    44               161568       0.0%    100.0%      0.0%
 flops     6 x    11 x     6               169488       0.0%    100.0%      0.0%
 flops     6 x    12 x     6               184032       0.0%    100.0%      0.0%
 flops     6 x     6 x    13               224640       0.0%    100.0%      0.0%
 flops     6 x     7 x    13               262080       0.0%    100.0%      0.0%
 flops    13 x     7 x     6               262080       0.0%    100.0%      0.0%
 flops    13 x     7 x     7               305760       0.0%    100.0%      0.0%
 flops    43 x   103 x    43               380894       0.0%    100.0%      0.0%
 flops    44 x   102 x    44               394944       0.0%    100.0%      0.0%
 flops    13 x     6 x     6               449280       0.0%    100.0%      0.0%
 flops    32 x   103 x    43              1133824       0.0%    100.0%      0.0%
 flops    43 x   103 x    32              1133824       0.0%    100.0%      0.0%
 flops    32 x   102 x    44              1148928       0.0%    100.0%      0.0%
 flops    44 x   102 x    32              1148928       0.0%    100.0%      0.0%
 flops     6 x     6 x    32              1400832       0.0%    100.0%      0.0%
 flops   162 x   103 x    43              1434996       0.0%    100.0%      0.0%
 flops    43 x   103 x   162              1434996       0.0%    100.0%      0.0%
 flops   162 x   102 x    44              1454112       0.0%    100.0%      0.0%
 flops    44 x   102 x   162              1454112       0.0%    100.0%      0.0%
 flops     6 x    28 x     6              1612800       0.0%    100.0%      0.0%
 flops   162 x    43 x    43              1797228       0.0%    100.0%      0.0%
 flops     6 x    32 x    32              1867776       0.0%    100.0%      0.0%
 flops   162 x    44 x    44              1881792       0.0%    100.0%      0.0%
 flops    43 x   128 x    43              1893376       0.0%    100.0%      0.0%
 flops    44 x   128 x    44              1982464       0.0%    100.0%      0.0%
 flops    32 x   102 x    32              3342336       0.0%    100.0%      0.0%
 flops   102 x   102 x   162              3370896       0.0%    100.0%      0.0%
 flops    32 x   103 x    32              3375104       0.0%    100.0%      0.0%
 flops   103 x   103 x   162              3437316       0.0%    100.0%      0.0%
 flops    32 x   102 x   162              4230144       0.0%    100.0%      0.0%
 flops   162 x   102 x    32              4230144       0.0%    100.0%      0.0%
 flops    32 x   103 x   162              4271616       0.0%    100.0%      0.0%
 flops   162 x   103 x    32              4271616       0.0%    100.0%      0.0%
 flops   146 x   102 x   146              4348464       0.0%    100.0%      0.0%
 flops   146 x   103 x   146              4391096       0.0%    100.0%      0.0%
 flops   146 x   102 x   162              4825008       0.0%    100.0%      0.0%
 flops   162 x   102 x   146              4825008       0.0%    100.0%      0.0%
 flops   146 x   103 x   162              4872312       0.0%    100.0%      0.0%
 flops   162 x   103 x   146              4872312       0.0%    100.0%      0.0%
 flops   162 x    32 x    43              5349888       0.0%    100.0%      0.0%
 flops   162 x    43 x    32              5349888       0.0%    100.0%      0.0%
 flops   162 x    32 x    44              5474304       0.0%    100.0%      0.0%
 flops   162 x    44 x    32              5474304       0.0%    100.0%      0.0%
 flops   156 x   103 x    43              5527392       0.0%    100.0%      0.0%
 flops    43 x   103 x   156              5527392       0.0%    100.0%      0.0%
 flops   156 x   102 x    44              5601024       0.0%    100.0%      0.0%
 flops    44 x   102 x   156              5601024       0.0%    100.0%      0.0%
 flops    43 x   128 x    32              5636096       0.0%    100.0%      0.0%
 flops    32 x   128 x    43              5636096       0.0%    100.0%      0.0%
 flops    44 x   128 x    32              5767168       0.0%    100.0%      0.0%
 flops    32 x   128 x    44              5767168       0.0%    100.0%      0.0%
 flops   156 x    43 x    43              6922656       0.0%    100.0%      0.0%
 flops     6 x    13 x    15              7020000       0.0%    100.0%      0.0%
 flops    13 x     6 x    15              7020000       0.0%    100.0%      0.0%
 flops    43 x   128 x   162              7133184       0.0%    100.0%      0.0%
 flops   162 x   128 x    43              7133184       0.0%    100.0%      0.0%
 flops   156 x    44 x    44              7248384       0.0%    100.0%      0.0%
 flops    44 x   128 x   162              7299072       0.0%    100.0%      0.0%
 flops   162 x   128 x    44              7299072       0.0%    100.0%      0.0%
 flops     6 x    13 x    16              7488000       0.0%    100.0%      0.0%
 flops    13 x     6 x    16              7488000       0.0%    100.0%      0.0%
 flops     6 x    13 x    43             10263240       0.0%    100.0%      0.0%
[...]
 flops    43 x    43 x   156            246908064       0.0%    100.0%      0.0%
 flops    28 x    28 x   162            254016000       0.0%    100.0%      0.0%
 flops    44 x    44 x   156            258525696       0.0%    100.0%      0.0%
 flops   160 x   160 x   162            265420800       0.0%    100.0%      0.0%
 flops   162 x    28 x   162            587865600       0.0%    100.0%      0.0%
 flops   128 x   128 x   156            654311424       0.0%    100.0%      0.0%
 flops    32 x    43 x   156            734982144       0.0%    100.0%      0.0%
 flops    43 x    32 x   156            734982144       0.0%    100.0%      0.0%
 flops    32 x    44 x   156            752074752       0.0%    100.0%      0.0%
 flops    44 x    32 x   156            752074752       0.0%    100.0%      0.0%
 flops   160 x   128 x   156            817889280       0.0%    100.0%      0.0%
 flops   156 x   128 x   160            817889280       0.0%    100.0%      0.0%
 flops   160 x   128 x   160            838860800       0.0%    100.0%      0.0%
 flops    28 x    32 x   162            870912000       0.0%    100.0%      0.0%
 flops    32 x    28 x   162            870912000       0.0%    100.0%      0.0%
 flops    13 x    13 x    15            927810000       0.0%    100.0%      0.0%
 flops    28 x    28 x   156            978432000       0.0%    100.0%      0.0%
 flops    13 x    13 x    16            989664000       0.0%    100.0%      0.0%
 flops   160 x   160 x   156           1022361600       0.0%    100.0%      0.0%
 flops    13 x    13 x    43           1356458220       0.0%    100.0%      0.0%
 flops    13 x    13 x    44           1388003760       0.0%    100.0%      0.0%
 flops    13 x    32 x     6           1466150400       0.0%    100.0%      0.0%
 flops     6 x    32 x    13           1466150400       0.0%    100.0%      0.0%
 flops    13 x    15 x    13           1825200000       0.0%    100.0%      0.0%
 flops    13 x    16 x    13           1946880000       0.0%    100.0%      0.0%
 flops   162 x    32 x   162           2015539200       0.0%    100.0%      0.0%
 flops   162 x    28 x   156           2264371200       0.0%    100.0%      0.0%
 flops   156 x    28 x   162           2264371200       0.0%    100.0%      0.0%
 flops    13 x    11 x    13           2864347200       0.0%    100.0%      0.0%
 flops    13 x    12 x    13           3110140800       0.0%    100.0%      0.0%
 flops    28 x    32 x   156           3354624000       0.0%    100.0%      0.0%
 flops    32 x    28 x   156           3354624000       0.0%    100.0%      0.0%
 flops    32 x    32 x   162           4121985024       0.0%    100.0%      0.0%
 flops   156 x    32 x   162           7763558400       0.0%    100.0%      0.0%
 flops   162 x    32 x   156           7763558400       0.0%    100.0%      0.0%
 flops   156 x    28 x   156           8722022400       0.0%    100.0%      0.0%
 flops    13 x    13 x    32          12034314240       0.0%    100.0%      0.0%
 flops    32 x    32 x   156          15877275648       0.0%    100.0%      0.0%
 flops    13 x    28 x    13          27256320000       0.0%    100.0%      0.0%
 flops   156 x    32 x   156          29904076800       0.0%    100.0%      0.0%
 flops    13 x    32 x    13         190599552000       0.0%    100.0%      0.0%
 flops inhomo. stacks                           0       0.0%      0.0%      0.0%
 flops total                       352.426402E+09       0.0%    100.0%      0.0%
 flops max/rank                     19.148937E+09       0.0%    100.0%      0.0%
 matmuls inhomo. stacks                         0       0.0%      0.0%      0.0%
 matmuls total                           25434000       0.0%    100.0%      0.0%
 number of processed stacks                406396       0.0%    100.0%      0.0%
 average stack size                                     0.0      62.6       0.0
 marketing flops                   369.387504E+09
 -------------------------------------------------------------------------------
 # multiplications                           3387
 max memory usage/rank             380.698624E+06
 # max total images/rank                        1
 # max 3D layers                                1
 # MPI messages exchanged                  677400
 MPI messages size (bytes):
  total size                        52.288770E+09
  min size                           0.000000E+00
  max size                         209.952000E+03
  average size                      77.190391E+03
 MPI breakdown and total messages size (bytes):
             size <=      128              101440                        0
       128 < size <=     8192                 512                  4194304
      8192 < size <=    32768               12808                253556384
     32768 < size <=   131072              375572              15139498752
    131072 < size <=  4194304              187068              36891765376
   4194304 < size <= 16777216                   0                        0
  16777216 < size                               0                        0
 -------------------------------------------------------------------------------
 -                                                                             -
 -                      DBCSR MESSAGE PASSING PERFORMANCE                      -
 -                                                                             -
 -------------------------------------------------------------------------------
 ROUTINE             CALLS      AVE VOLUME [Bytes]
 MP_Bcast              200                     12.
 MP_Allreduce        14884                     27.
 MP_Alltoall         28211                   9738.
 MP_ISend            67728                  33609.
 MP_IRecv            67728                  33628.
 -------------------------------------------------------------------------------

 -------------------------------------------------------------------------------
 -                                                                             -
 -                                GRID STATISTICS                              -
 -                                                                             -
 -------------------------------------------------------------------------------
 LP    KERNEL             BACKEND                              COUNT     PERCENT
 4     collocate ortho    REF                                7111644      49.20%
 4     integrate ortho    REF                                6972200      48.24%
 3     collocate ortho    REF                                 183600       1.27%
 3     integrate ortho    REF                                 180000       1.25%
 2     collocate ortho    REF                                   2550       0.02%
 2     integrate ortho    REF                                   2500       0.02%
 0     collocate general  REF                                   1525       0.01%
 -------------------------------------------------------------------------------

 MEMORY| Estimated peak process memory [MiB]                                 364

 -------------------------------------------------------------------------------
 ----                             MULTIGRID INFO                            ----
 -------------------------------------------------------------------------------
 count for grid        1:         706264          cutoff [a.u.]          150.00
 count for grid        2:         224157          cutoff [a.u.]           50.00
 count for grid        3:         187112          cutoff [a.u.]           16.67
 count for grid        4:         148193          cutoff [a.u.]            5.56
 count for grid        5:          37891          cutoff [a.u.]            1.85
 count for grid        6:              0          cutoff [a.u.]            0.62
 count for grid        7:              0          cutoff [a.u.]            0.21
 count for grid        8:              0          cutoff [a.u.]            0.07
 count for grid        9:              0          cutoff [a.u.]            0.02
 count for grid       10:              0          cutoff [a.u.]            0.01
 count for grid       11:              0          cutoff [a.u.]            0.00
 count for grid       12:              0          cutoff [a.u.]            0.00
 count for grid       13:              0          cutoff [a.u.]            0.00
 count for grid       14:              0          cutoff [a.u.]            0.00
 count for grid       15:              0          cutoff [a.u.]            0.00
 count for grid       16:              0          cutoff [a.u.]            0.00
 total gridlevel count  :        1303617

 -------------------------------------------------------------------------------
 -                                                                             -
 -                         MESSAGE PASSING PERFORMANCE                         -
 -                                                                             -
 -------------------------------------------------------------------------------

 ROUTINE             CALLS      AVE VOLUME [Bytes]
 MP_Group               17
 MP_Bcast              908                 414308.
 MP_Allreduce         6527                   2075.
 MP_Sync               432
 MP_Alltoall          3722                1420207.
 MP_SendRecv          1200                 204800.
 MP_ISendRecv        72720                  25713.
 MP_Wait             79216
 MP_comm_split         416
 MP_ISend             5887                 325053.
 MP_IRecv             5887                 325011.
 MP_Recv                30                 201216.
 -------------------------------------------------------------------------------


 -------------------------------------------------------------------------------
 -                                                                             -
 -                           R E F E R E N C E S                               -
 -                                                                             -
 -------------------------------------------------------------------------------
 
 CP2K version 8.0 (Development Version), the CP2K developers group (2020).
 CP2K is freely available from https://www.cp2k.org/ .

 Kuehne,Thomas D.; Iannuzzi,Marcella; Del Ben,Mauro;
 Rybkin,Vladimir V.; Seewald,Patrick; Stein,Frederick; Laino,Teodoro;
 Khaliullin,Rustam Z.; Schuett,Ole; Schiffmann,Florian; Golze,Dorothea;
 Wilhelm,Jan; Chulkov,Sergey; Bani-Hashemian,Mohammad Hossein;
 Weber,Valery; Borstnik,Urban; Taillefumier,Mathieu;
 Jakobovits,Alice Shoshana; Lazzaro,Alfio; Pabst,Hans; Mueller,Tiziano;
 Schade,Robert; Guidon,Manuel; Andermatt,Samuel; Holmberg,Nico;
 Schenter,Gregory K.; Hehn,Anna; Bussy,Augustin; Belleflamme,Fabian;
 Tabacchi,Gloria; Gloess,Andreas; Lass,Michael; Bethune,Iain;
 Mundy,Christopher J.; Plessl,Christian; Watkins,Matt;
 VandeVondele,Joost; Krack,Matthias; Hutter,Juerg. 
 The Journal of Chemical Physics, 152 (19), (2020). 
 CP2K: An electronic structure and molecular dynamics software package -
 Quickstep: Efficient and accurate electronic structure calculations.
 https://doi.org/10.1063/5.0007045

 Goerigk, Lars; Hansen, Andreas; Bauer, Christoph; Ehrlich, Stephan;
 Najibi, Asim; Grimme, Stefan. , 19 (48), (2017). 
 A look at the density functional theory zoo with the advanced GMTKN55 database
 for general main group thermochemistry, kinetics and noncovalent interactions.
 https://doi.org/10.1039/C7CP04913G

 Schuett, Ole; Messmer, Peter; Hutter, Juerg; VandeVondele, Joost. 
 Electronic Structure Calculations on Graphics Processing Units, John
 Wiley & Sons, Ltd, 173-190 (2016). 
 GPU-Accelerated Sparse Matrix-Matrix Multiplication for
 Linear Scaling Density Functional Theory.
 https://doi.org/10.1002/9781118670712.ch8

 Borstnik, U; VandeVondele, J; Weber, V; Hutter, J. 
 PARALLEL COMPUTING, 40 (5-6), 47-58 (2014). 
 Sparse matrix multiplication: The distributed block-compressed sparse
 row library.
 https://doi.org/10.1016/j.parco.2014.03.012

 Hutter, J; Iannuzzi, M; Schiffmann, F; VandeVondele, J. 
 WIREs Comput Mol Sci., 4 (1), 15-25 (2014). 
 CP2K: atomistic simulations of condensed matter systems.
 https://doi.org/10.1002/wcms.1159

 Grimme, S; Ehrlich, S; Goerigk, L. 
 JOURNAL OF COMPUTATIONAL CHEMISTRY, 32, 1456 (2011). 
 Effect of the damping function in dispersion corrected density functional theory.
 https://doi.org/10.1002/jcc.21759

 Grimme, S; Antony, J; Ehrlich, S; Krieg, H. 
 JOURNAL OF CHEMICAL PHYSICS, 132 (15), 154104 (2010). 
 A consistent and accurate ab initio parametrization of density
 functional dispersion correction (DFT-D) for the 94 elements H-Pu.
 https://doi.org/10.1063/1.3382344

 VandeVondele, J; Hutter, J. 
 JOURNAL OF CHEMICAL PHYSICS, 127 (11), 114105 (2007). 
 Gaussian basis sets for accurate calculations on molecular systems in
 gas and condensed phases.
 https://doi.org/10.1063/1.2770708

 Krack, M. 
 THEORETICAL CHEMISTRY ACCOUNTS, 114 (1-3), 145-152 (2005). 
 Pseudopotentials for H to Kr optimized for gradient-corrected
 exchange-correlation functionals.
 https://doi.org/10.1007/s00214-005-0655-y

 VandeVondele, J; Krack, M; Mohamed, F; Parrinello, M; Chassaing, T;
 Hutter, J. COMPUTER PHYSICS COMMUNICATIONS, 167 (2), 103-128 (2005). 
 QUICKSTEP: Fast and accurate density functional calculations using a
 mixed Gaussian and plane waves approach.
 https://doi.org/10.1016/j.cpc.2004.12.014

 Frigo, M; Johnson, SG. 
 PROCEEDINGS OF THE IEEE, 93 (2), 216-231 (2005). 
 The design and implementation of FFTW3.
 https://doi.org/10.1109/JPROC.2004.840301

 VandeVondele, J; Hutter, J. 
 JOURNAL OF CHEMICAL PHYSICS, 118 (10), 4365-4369 (2003). 
 An efficient orbital transformation method for electronic structure
 calculations.
 https://doi.org/10.1063/1.1543154

 Martyna, GJ; Tuckerman, ME. 
 JOURNAL OF CHEMICAL PHYSICS, 110 (6), 2810-2821 (1999). 
 A reciprocal space based method for treating long range interactions in
 ab initio and force-field-based calculations in clusters.
 https://doi.org/10.1063/1.477923

 Hartwigsen, C; Goedecker, S; Hutter, J. 
 PHYSICAL REVIEW B, 58 (7), 3641-3662 (1998). 
 Relativistic separable dual-space Gaussian pseudopotentials from H to Rn.
 https://doi.org/10.1103/PhysRevB.58.3641

 Lippert, G; Hutter, J; Parrinello, M. 
 MOLECULAR PHYSICS, 92 (3), 477-487 (1997). 
 A hybrid Gaussian and plane wave density functional scheme.
 https://doi.org/10.1080/002689797170220

 Perdew, JP; Burke, K; Ernzerhof, M. 
 PHYSICAL REVIEW LETTERS, 77 (18), 3865-3868 (1996). 
 Generalized gradient approximation made simple.
 https://doi.org/10.1103/PhysRevLett.77.3865

 Goedecker, S; Teter, M; Hutter, J. 
 PHYSICAL REVIEW B, 54 (3), 1703-1710 (1996). 
 Separable dual-space Gaussian pseudopotentials.
 https://doi.org/10.1103/PhysRevB.54.1703


 -------------------------------------------------------------------------------
 -                                                                             -
 -                                T I M I N G                                  -
 -                                                                             -
 -------------------------------------------------------------------------------
 SUBROUTINE                       CALLS  ASD         SELF TIME        TOTAL TIME
                                MAXIMUM       AVERAGE  MAXIMUM  AVERAGE  MAXIMUM
 CP2K                                 1  1.0    0.042    0.063  174.045  174.045
 qs_energies                          1  2.0    0.000    0.000  173.609  173.609
 scf_env_do_scf                       1  3.0    0.000    0.000  171.224  171.224
 scf_env_do_scf_inner_loop           50  4.0    0.003    0.005  171.201  171.222
 qs_ks_update_qs_env                 50  5.0    0.000    0.000   67.987   67.991
 rebuild_ks_matrix                   50  6.0    0.000    0.000   67.973   67.977
 qs_ks_build_kohn_sham_matrix        50  7.0    0.006    0.007   67.972   67.976
 qs_rho_update_rho                   51  5.0    0.000    0.000   57.822   57.825
 calculate_rho_elec                 102  6.0    0.073    0.080   57.822   57.824
 sum_up_and_integrate                50  8.0    0.089    0.115   53.532   53.536
 integrate_v_rspace                 100  9.0    0.002    0.003   53.443   53.480
 grid_collocate_task_list           102  7.0   34.102   47.385   34.102   47.385
 grid_integrate_task_list           100 10.0   28.715   42.821   28.715   42.821
 qs_scf_new_mos                      50  5.0    0.000    0.000   34.593   34.598
 do_block_davidson_diag              50  6.0    0.001    0.001   34.593   34.597
 generate_extended_space_sparse     100  7.0    0.027    0.028   33.528   33.531
 density_rs2pw                      102  7.0    0.009    0.010   23.184   31.735
 rs_pw_transfer                    3233  9.5    0.017    0.019   22.413   30.969
 reduce_extended_space              200  8.0    0.008    0.009   26.226   26.253
 cp_fm_power                        196  9.0    4.289   17.579   23.771   23.784
 mp_waitany                        5887 11.5   14.986   23.359   14.986   23.359
 rs_pw_transfer_RS2PW_150           103  9.0    0.744    1.076   14.566   23.119
 mp_alltoall_d11v                 10489 10.5   14.410   22.851   14.410   22.851
 rs_gather_matrices                 100 10.0    0.012    0.015   14.311   22.802
 cp_fm_syrk                         196 10.0   16.999   21.233   16.999   21.233
 pw_transfer                       3584  9.3    0.145    0.152   15.753   16.663
 fft_wrap_pw1pw2                   3484 10.3    0.016    0.017   15.454   16.368
 fft_wrap_pw1pw2_150                453 10.2    0.933    1.189   13.660   15.283
 fft3d_ps                          3484 12.3    7.903    9.938   12.800   13.751
 qs_vxc_create                       50  8.0    0.001    0.001   11.756   11.894
 xc_vxc_pw_create                    50  9.0    0.301    0.399   11.755   11.894
 gspace_mixing                       49  5.0    0.072    0.079   11.889   11.889
 potential_pw2rs                    100 10.0    0.013    0.014   10.414   10.454
 xc_rho_set_and_dset_create          50 10.0    0.305    0.431    8.833    9.623
 broyden_mixing                      49  6.0    6.251    7.811    7.808    7.845
 xc_functional_eval                  50 11.0    0.001    0.001    6.648    7.385
 pbe_lsd_eval                        50 12.0    6.648    7.385    6.648    7.385
 mp_alltoall_z22v                  3484 14.3    3.772    6.888    3.772    6.888
 dbcsr_multiply_generic            3387  8.3    0.096    0.100    6.235    6.337
 mp_waitall_1                    263001 12.2    4.159    6.308    4.159    6.308
 cp_fm_syevd                        416  9.5    0.001    0.002    5.381    5.401
 cp_fm_redistribute_end             416 10.5    3.406    5.253    3.432    5.280
 pw_nn_compose_r                    600 10.5    2.472    2.546    4.000    5.247
 cp_fm_syevd_base                   416 10.5    1.838    5.170    1.838    5.170
 rs_pw_transfer_PW2RS_150           100 12.0    2.081    2.758    4.140    4.968
 x_to_yz                           1750 14.5    0.644    0.831    2.664    4.217
 multiply_cannon                   3387  9.3    0.179    0.185    3.590    4.015
 -------------------------------------------------------------------------------

 The number of warnings for this run is : 3
 
 -------------------------------------------------------------------------------
  **** **** ******  **  PROGRAM ENDED AT                 2021-11-29 15:35:27.627
 ***** ** ***  *** **   PROGRAM RAN ON                                      hpc5
 **    ****   ******    PROGRAM RAN BY                                  97425008
 ***** **    ** ** **   PROGRAM PROCESS ID                                  2914
  **** **  *******  **  PROGRAM STOPPED IN /home/97425008/compchem/Tutorials_CP2
                                           K/cp2k_libint_libra/step2_compue_over
                                           laps/job1
