# Projected DOS for atomic kind C at iteration step i = 0, E(Fermi) =    -0.112723 a.u.
#     MO Eigenvalue [a.u.]      Occupation                 s                py                pz                px               d-2               d-1                d0               d+1               d+2
       1         -1.926200        1.000000        0.01066573        0.00301924        0.00313932        0.00241620        0.00021473        0.00047705        0.00027741        0.00022040        0.00024480
       2         -0.819386        1.000000        0.61386710        0.13024518        0.08771557        0.07133225        0.01680862        0.01511624        0.01417141        0.01503932        0.01901103
       3         -0.801828        1.000000        0.53430947        0.12494463        0.16091956        0.09511144        0.01101473        0.02053104        0.02083660        0.01630477        0.01159407
       4         -0.795164        1.000000        0.52620583        0.13239379        0.14315341        0.11724694        0.01280332        0.02158517        0.02107565        0.01395466        0.01409879
       5         -0.784512        1.000000        0.50099500        0.11235067        0.10002295        0.20147739        0.02399776        0.00586927        0.00991648        0.02163553        0.02435302
       6         -0.774061        1.000000        0.40449942        0.14803254        0.18565310        0.19249211        0.01432237        0.02946524        0.01773716        0.01349003        0.02276821
       7         -0.759746        1.000000        0.40149897        0.19070659        0.16067454        0.15974001        0.01116970        0.02122428        0.01531894        0.01908537        0.02647942
       8         -0.752820        1.000000        0.39135489        0.20211963        0.19130357        0.12037036        0.02359995        0.00854233        0.03172945        0.01460478        0.01641571
       9         -0.750903        1.000000        0.39066712        0.18432056        0.16593217        0.16803793        0.02637863        0.02167202        0.01994173        0.01519402        0.00935215
      10         -0.747960        1.000000        0.38844843        0.13331078        0.16118121        0.22371105        0.01826483        0.01738409        0.01041066        0.02983381        0.01780580
      11         -0.721108        1.000000        0.36630762        0.14270695        0.17581921        0.22149335        0.01487166        0.02249749        0.02214526        0.01456465        0.02394363
      12         -0.718933        1.000000        0.36487214        0.20780741        0.19379493        0.13734970        0.02228687        0.01905570        0.01725057        0.01992639        0.01959525
      13         -0.712051        1.000000        0.36106597        0.19879150        0.17034535        0.17381886        0.02141184        0.01620531        0.01882522        0.02621170        0.01342458
      14         -0.689981        1.000000        0.36217154        0.21763195        0.24596396        0.08806160        0.02346217        0.01706251        0.01610749        0.01637004        0.02112507
      15         -0.684140        1.000000        0.36076972        0.24466823        0.07475201        0.22593561        0.01198047        0.01719535        0.02651311        0.02046849        0.01789514
      16         -0.681449        1.000000        0.36009037        0.14272159        0.22763434        0.17642429        0.02414554        0.01799650        0.01623880        0.01826133        0.01739489
      17         -0.680486        1.000000        0.35870425        0.12070494        0.18216998        0.24496680        0.01607739        0.02363052        0.01595390        0.01837923        0.01979786
      18         -0.640038        1.000000        0.36369826        0.23667306        0.14814134        0.16527027        0.02403733        0.01415776        0.02114453        0.01762937        0.01025318
      19         -0.638901        1.000000        0.36508030        0.15235410        0.21491164        0.17922434        0.01726585        0.02317569        0.00900340        0.02174235        0.01784898
      20         -0.638395        1.000000        0.36286742        0.14572723        0.12587151        0.27886877        0.01118569        0.01387539        0.02528352        0.01603154        0.02045144
      21         -0.636404        1.000000        0.36384995        0.21103029        0.18218636        0.15485280        0.02055702        0.01776460        0.01720214        0.01860203        0.01421588
      22         -0.635498        1.000000        0.36309213        0.18577820        0.23200581        0.12936475        0.01586325        0.01258268        0.02128886        0.01952781        0.02128967
      23         -0.620387        1.000000        0.39319186        0.17250274        0.15949708        0.15805655        0.01900912        0.03052801        0.02052871        0.01685356        0.02983339
      24         -0.618359        1.000000        0.39120201        0.16862083        0.16279540        0.16063659        0.03126949        0.01638158        0.02539983        0.01982173        0.02414824
      25         -0.617694        1.000000        0.38894700        0.16914328        0.20132319        0.12500361        0.02793261        0.02004461        0.03252893        0.02526977        0.01028883
      26         -0.616667        1.000000        0.38872815        0.11984935        0.15661332        0.21931748        0.01473076        0.03190159        0.01106184        0.02791433        0.03036357
      27         -0.570783        1.000000        0.46386233        0.13235226        0.13926322        0.11946004        0.03969829        0.01769464        0.03989976        0.02667367        0.02417685
      28         -0.568567        1.000000        0.46750065        0.13728523        0.11593161        0.12733101        0.04105920        0.01553625        0.03301853        0.04210841        0.02033272
      29         -0.565773        1.000000        0.46293156        0.10786769        0.13054018        0.14849367        0.02615030        0.04332899        0.01877921        0.03385999        0.02803941
      30         -0.563815        1.000000        0.40475161        0.20351169        0.10043344        0.17661780        0.01334065        0.04159211        0.02520908        0.01836387        0.01813749
      31         -0.560857        1.000000        0.45138280        0.14979427        0.15353157        0.10217012        0.02733426        0.01901506        0.03691580        0.02038353        0.04115594
      32         -0.558677        1.000000        0.32354897        0.19472930        0.20878302        0.20286884        0.01318535        0.01562613        0.01070357        0.01439370        0.01621115
      33         -0.558009        1.000000        0.31078925        0.18224325        0.22217638        0.22491954        0.01104565        0.01533215        0.00784733        0.01347139        0.01421458
      34         -0.556094        1.000000        0.31845159        0.18989807        0.22829076        0.19586887        0.01117303        0.01372033        0.01093396        0.01264145        0.01954216
      35         -0.520936        1.000000        0.20701641        0.34735117        0.24786903        0.17583141        0.00430695        0.00633601        0.00494465        0.00647267        0.00652302
      36         -0.517824        1.000000        0.20044256        0.21810597        0.18802976        0.36585092        0.00577894        0.00544200        0.00522426        0.00623912        0.00674249
      37         -0.515901        1.000000        0.19488560        0.19684505        0.34983307        0.23103257        0.00705246        0.00536681        0.00739737        0.00572061        0.00352314
      38         -0.487100        1.000000        0.31192839        0.24630398        0.22550114        0.15298482        0.01348972        0.00806518        0.01438555        0.01754068        0.01698514
      39         -0.482365        1.000000        0.35891792        0.19751809        0.14649105        0.21190551        0.01588294        0.02141828        0.01617754        0.01472021        0.01767988
      40         -0.481506        1.000000        0.34282886        0.18806506        0.15205746        0.23624863        0.01342400        0.01899191        0.01945055        0.01669323        0.01412510
      41         -0.479442        1.000000        0.39176682        0.17407917        0.16967201        0.16682921        0.01970350        0.02016385        0.01772046        0.01913360        0.02193828
      42         -0.478324        1.000000        0.31890788        0.19895366        0.22117178        0.18782081        0.01618624        0.01389672        0.01677055        0.01070608        0.01588884
      43         -0.478006        1.000000        0.32611257        0.21715254        0.21330777        0.16813520        0.01949280        0.01073198        0.01705909        0.01741251        0.01319774
      44         -0.476559        1.000000        0.39286224        0.17678399        0.15800965        0.17260048        0.01853969        0.01972477        0.02101589        0.01875300        0.02219224
      45         -0.474487        1.000000        0.31941962        0.17425488        0.19411438        0.23360470        0.01602701        0.01965818        0.01413889        0.01651932        0.01233553
      46         -0.462150        1.000000        0.01337256        0.29028442        0.34857693        0.31048690        0.00659404        0.00805719        0.00802176        0.00670331        0.00994549
      47         -0.425910        1.000000        0.16927707        0.22371516        0.27249820        0.25055675        0.02301811        0.01788364        0.01739625        0.02883879        0.01319465
      48         -0.420087        1.000000        0.16585074        0.24974166        0.25384546        0.23534434        0.02090432        0.01295174        0.02243669        0.01695474        0.02347930
      49         -0.419049        1.000000        0.16711181        0.23562236        0.24596587        0.25714022        0.01792148        0.02289234        0.01770418        0.01764417        0.01967583
      50         -0.417576        1.000000        0.16538287        0.25188639        0.24226829        0.24426371        0.01697367        0.02409402        0.01972556        0.01506274        0.02073998
      51         -0.398710        1.000000        0.29067962        0.21096933        0.20338556        0.22333561        0.01058864        0.02267922        0.01276032        0.01112026        0.02148848
      52         -0.397420        1.000000        0.27719303        0.22834186        0.17723931        0.24757584        0.01335819        0.02044593        0.01148866        0.01775321        0.01586799
      53         -0.396145        1.000000        0.29235621        0.23732238        0.19810769        0.19883107        0.01181313        0.01072122        0.02272024        0.01815598        0.01697926
      54         -0.392089        1.000000        0.27433747        0.20152584        0.24210699        0.20473545        0.02251102        0.01316220        0.01866070        0.01030575        0.01435343
      55         -0.390340        1.000000        0.28318419        0.22297152        0.20293777        0.21258804        0.02070400        0.01276795        0.01407121        0.02058428        0.01048167
      56         -0.383134        1.000000        0.13767983        0.24875666        0.29062904        0.25490501        0.01271181        0.01475520        0.01429925        0.01418428        0.01472733
      57         -0.382887        1.000000        0.11597216        0.27279332        0.27954138        0.27227944        0.01314982        0.01266824        0.01581154        0.01441454        0.01237243
      58         -0.380784        1.000000        0.11072739        0.24817423        0.30731314        0.26670229        0.01536029        0.01243986        0.01332746        0.01177272        0.01507067
      59         -0.359540        1.000000        0.06720368        0.27179727        0.29827074        0.27633456        0.01916118        0.01751736        0.02003060        0.01849068        0.01904099
      60         -0.358827        1.000000        0.06815516        0.27553732        0.27581626        0.28591728        0.02459436        0.01705710        0.01670468        0.01993333        0.01994354
      61         -0.357832        1.000000        0.06836777        0.30545699        0.26445982        0.26757828        0.01704634        0.02164440        0.01990971        0.02016456        0.01936918
      62         -0.354560        1.000000        0.07114858        0.26019943        0.28039158        0.28500060        0.02017559        0.02180555        0.02005294        0.02008195        0.02235078
      63         -0.343171        1.000000        0.05090534        0.33738628        0.38257730        0.16279480        0.01403531        0.01960004        0.02516811        0.01723961        0.01689469
      64         -0.342683        1.000000        0.05781075        0.33469096        0.24944879        0.28534654        0.01925391        0.02119532        0.01614664        0.01690064        0.02167428
      65         -0.337627        1.000000        0.10992488        0.30229050        0.29312672        0.19879912        0.01924498        0.01862528        0.02840166        0.01636396        0.01774894
      66         -0.335509        1.000000        0.10082917        0.17500730        0.30380086        0.31976624        0.01895459        0.01995434        0.02329950        0.01853962        0.01890143
      67         -0.335076        1.000000        0.11122066        0.29591663        0.21525403        0.27947435        0.02071075        0.01636013        0.01661520        0.02573066        0.02177224
      68         -0.334484        1.000000        0.09853766        0.28632722        0.27361298        0.24239497        0.02010199        0.02203074        0.01584321        0.02136787        0.01933092
      69         -0.331392        1.000000        0.04480824        0.21204079        0.20370727        0.44414676        0.01815958        0.01627488        0.01631901        0.01748920        0.02147813
      70         -0.319123        1.000000        0.04000180        0.25753445        0.43720437        0.22171772        0.01035293        0.01058672        0.00883827        0.01073954        0.00875273
      71         -0.317284        1.000000        0.04199843        0.32512071        0.19173061        0.39204890        0.00764320        0.01068857        0.01091260        0.00977234        0.01193667
      72         -0.315887        1.000000        0.04624160        0.35584348        0.22325859        0.32514007        0.01051812        0.01138076        0.01035472        0.00887685        0.01101730
      73         -0.313426        1.000000        0.03915224        0.22334410        0.37199021        0.31525102        0.01094640        0.00960692        0.01047781        0.00746231        0.01229841
      74         -0.313097        1.000000        0.03763589        0.37242916        0.29285098        0.24675949        0.00871320        0.00973209        0.01206314        0.01034950        0.01050903
      75         -0.304159        1.000000        0.09886764        0.27010985        0.26306504        0.28914197        0.02025400        0.01070693        0.02465865        0.01022523        0.01647218
      76         -0.300726        1.000000        0.10259966        0.35292810        0.20013381        0.26014728        0.01670893        0.01732035        0.01274916        0.02232944        0.01600046
      77         -0.299820        1.000000        0.10351453        0.26351706        0.28034563        0.26857628        0.01931239        0.02083421        0.01031777        0.02073084        0.01350874
      78         -0.298658        1.000000        0.09036863        0.17366973        0.40854216        0.24493141        0.01486758        0.02032586        0.01349194        0.01274625        0.02333899
      79         -0.297499        1.000000        0.09371899        0.35852956        0.20266103        0.26580276        0.01296544        0.01187251        0.02546372        0.01566599        0.01936088
      80         -0.295934        1.000000        0.03832882        0.30615899        0.23422565        0.32750924        0.02566842        0.02121997        0.01230584        0.01582218        0.02077871
      81         -0.294564        1.000000        0.05229757        0.25523936        0.25116599        0.35140078        0.01547257        0.01539147        0.01624734        0.03178173        0.01695440
      82         -0.293152        1.000000        0.05978312        0.31323579        0.32291103        0.21551298        0.01691566        0.02580036        0.02348394        0.01328522        0.01294438
      83         -0.292490        1.000000        0.08656989        0.22080570        0.31608965        0.29113359        0.02313501        0.01496116        0.01651376        0.02169567        0.01197675
      84         -0.291491        1.000000        0.03391259        0.26939116        0.31047003        0.28718654        0.01841378        0.02214138        0.02086548        0.02288456        0.01496059
      85         -0.289463        1.000000        0.02979329        0.38685363        0.29067428        0.19319580        0.01806695        0.01983941        0.02156831        0.01672135        0.02396165
      86         -0.285955        1.000000        0.02206037        0.19363859        0.29074160        0.38971066        0.01770884        0.01708585        0.02463766        0.02041190        0.02389951
      87         -0.274626        1.000000        0.02271237        0.34237228        0.27330718        0.30445267        0.01280020        0.01214307        0.01442990        0.00872598        0.01078221
      88         -0.274537        1.000000        0.02287265        0.32531893        0.30280206        0.29130545        0.00934975        0.00888395        0.01289602        0.01344454        0.01460127
      89         -0.271317        1.000000        0.02347827        0.27719460        0.34189551        0.29629495        0.01619489        0.01017555        0.01269234        0.01302401        0.01044188
      90         -0.269306        1.000000        0.02462988        0.29681601        0.30625116        0.31304066        0.01111763        0.01444312        0.00888464        0.01559381        0.01093002
      91         -0.247954        1.000000        0.01138164        0.30633392        0.23978546        0.32219740        0.02730099        0.02481279        0.01877538        0.02025343        0.02917351
      92         -0.244670        1.000000        0.01226306        0.23883716        0.35459124        0.28967723        0.02746630        0.02194214        0.02452284        0.03323809        0.01737049
      93         -0.243173        1.000000        0.01179241        0.28690098        0.32173810        0.25875052        0.02030356        0.02685067        0.02642286        0.02501072        0.02271300
      94         -0.240633        1.000000        0.02101109        0.34032508        0.24614115        0.26552859        0.01671323        0.04291546        0.02517421        0.02165380        0.02109596
      95         -0.239397        1.000000        0.02090679        0.21211071        0.38177055        0.25905937        0.01928539        0.02303073        0.02988042        0.01573598        0.03940661
      96         -0.237108        1.000000        0.02010696        0.40404779        0.15119452        0.29416354        0.02436791        0.01503038        0.03049735        0.02989323        0.03088963
      97         -0.235790        1.000000        0.01951803        0.25244227        0.25703382        0.34414163        0.04177145        0.02179734        0.01942901        0.02665508        0.01826579
      98         -0.235082        1.000000        0.02040787        0.25115254        0.32723755        0.27185838        0.02774621        0.02251731        0.02397338        0.03426471        0.02310453
      99         -0.229649        1.000000        0.00649058        0.22068734        0.30328996        0.35854199        0.02201729        0.03110249        0.02488991        0.01336674        0.02124549
     100         -0.226788        1.000000        0.00686626        0.33816226        0.31571340        0.22774042        0.01553949        0.03104978        0.02390870        0.01547991        0.02574856
     101         -0.225204        1.000000        0.00828857        0.44364042        0.23029613        0.20209885        0.01546858        0.02977695        0.02495223        0.02729390        0.01991190
     102         -0.224241        1.000000        0.01043950        0.29262796        0.17232337        0.40631631        0.03539003        0.01635792        0.01266749        0.01718311        0.03960803
     103         -0.222643        1.000000        0.00812673        0.22618315        0.28629947        0.36396851        0.03038012        0.02440733        0.01621283        0.02462067        0.02051352
     104         -0.222181        1.000000        0.00991217        0.32004171        0.30024635        0.25185925        0.02119509        0.02170222        0.02538501        0.02214573        0.02923623
     105         -0.221641        1.000000        0.01020904        0.37424779        0.34260454        0.15217053        0.01883042        0.03129983        0.02428579        0.02649157        0.01997357
     106         -0.219677        1.000000        0.01035480        0.11023375        0.35912183        0.39886592        0.02197483        0.01304776        0.02574798        0.04117464        0.02015330
     107         -0.219364        1.000000        0.00800524        0.31870404        0.27137780        0.28295154        0.03806022        0.01339586        0.03121000        0.02475355        0.01165814
     108         -0.169504        1.000000        0.00764563        0.28611398        0.33109615        0.23978727        0.02115404        0.03299267        0.03702186        0.02783587        0.01824375
     109         -0.168423        1.000000        0.00769539        0.40573540        0.17638584        0.27756230        0.03702686        0.02562214        0.01281066        0.02728339        0.03170331
     110         -0.167286        1.000000        0.00785275        0.25879526        0.27782169        0.31503894        0.03001042        0.03454936        0.02749983        0.02887182        0.01983204
     111         -0.166314        1.000000        0.00782696        0.29165528        0.23783560        0.32439408        0.04042980        0.01948412        0.01710076        0.02046882        0.04099742
     112         -0.165026        1.000000        0.00766340        0.22710830        0.31709938        0.30994069        0.02952648        0.01670060        0.03226159        0.03497720        0.02549389
     113         -0.161646        1.000000        0.00804649        0.24400600        0.34045854        0.27654480        0.02350271        0.02767893        0.03096126        0.02723913        0.02156163
     114         -0.159806        1.000000        0.00801940        0.28217186        0.34138148        0.23706150        0.02284910        0.03176359        0.02225870        0.02550513        0.02905592
     115         -0.156453        1.000000        0.00802884        0.42926937        0.25192796        0.17514524        0.02291304        0.04518975        0.02900849        0.01406921        0.02460094
     116         -0.155046        1.000000        0.00802613        0.14749052        0.30392282        0.40416753        0.01881991        0.01303135        0.03300667        0.04228937        0.02965424
     117         -0.122613        1.000000        0.00750318        0.28643052        0.33194787        0.24710051        0.02568391        0.02639028        0.02932819        0.02679400        0.01880673
     118         -0.121491        1.000000        0.00757455        0.33362965        0.25757798        0.27322201        0.02911536        0.02592147        0.02196394        0.02307646        0.02808019
     119         -0.119209        1.000000        0.00752683        0.22559705        0.26304704        0.37349362        0.02964441        0.01643804        0.02248149        0.03463527        0.02729946
     120         -0.112978        1.000000        0.00763159        0.21710788        0.26307776        0.38088824        0.02600699        0.02054623        0.02064692        0.03287057        0.03122070
     121         -0.112723        1.000000        0.00755220        0.38516337        0.31585999        0.16084091        0.02114772        0.04301361        0.03154146        0.01119760        0.02366403
     122         -0.058929        0.000000        0.00571891        0.23425802        0.30426832        0.27314842        0.02888121        0.04491852        0.03478490        0.03271796        0.03930085
     123         -0.057775        0.000000        0.00530835        0.28962151        0.21723756        0.30232527        0.03516931        0.03112479        0.03143190        0.04343298        0.04174882
     124         -0.057068        0.000000        0.00513100        0.26152006        0.30071096        0.24524579        0.04311344        0.03393837        0.04352715        0.03579963        0.02843804
     125         -0.000000        0.000000        0.00000000        0.00000000        0.00000000        0.00000000        0.00000000        0.00000000        0.00000000        0.00000000        0.00000000
     126         -0.000000        0.000000        0.00000000        0.00000000        0.00000000        0.00000000        0.00000000        0.00000000        0.00000000        0.00000000        0.00000000
     127         -0.000000        0.000000        0.00000000        0.00000000        0.00000000        0.00000000        0.00000000        0.00000000        0.00000000        0.00000000        0.00000000
     128         -0.000000        0.000000        0.00000000        0.00000000        0.00000000        0.00000000        0.00000000        0.00000000        0.00000000        0.00000000        0.00000000
     129         -0.000000        0.000000        0.00000000        0.00000000        0.00000000        0.00000000        0.00000000        0.00000000        0.00000000        0.00000000        0.00000000
     130         -0.000000        0.000000        0.00000000        0.00000000        0.00000000        0.00000000        0.00000000        0.00000000        0.00000000        0.00000000        0.00000000
     131         -0.000000        0.000000        0.00000000        0.00000000        0.00000000        0.00000000        0.00000000        0.00000000        0.00000000        0.00000000        0.00000000
     132         -0.000000        0.000000        0.00000000        0.00000000        0.00000000        0.00000000        0.00000000        0.00000000        0.00000000        0.00000000        0.00000000
     133         -0.000000        0.000000        0.00000000        0.00000000        0.00000000        0.00000000        0.00000000        0.00000000        0.00000000        0.00000000        0.00000000
     134         -0.000000        0.000000        0.00000000        0.00000000        0.00000000        0.00000000        0.00000000        0.00000000        0.00000000        0.00000000        0.00000000
     135         -0.000000        0.000000        0.00000000        0.00000000        0.00000000        0.00000000        0.00000000        0.00000000        0.00000000        0.00000000        0.00000000
     136         -0.000000        0.000000        0.00000000        0.00000000        0.00000000        0.00000000        0.00000000        0.00000000        0.00000000        0.00000000        0.00000000
     137         -0.000000        0.000000        0.00000000        0.00000000        0.00000000        0.00000000        0.00000000        0.00000000        0.00000000        0.00000000        0.00000000
     138         -0.000000        0.000000        0.00000000        0.00000000        0.00000000        0.00000000        0.00000000        0.00000000        0.00000000        0.00000000        0.00000000
     139         -0.000000        0.000000        0.00000000        0.00000000        0.00000000        0.00000000        0.00000000        0.00000000        0.00000000        0.00000000        0.00000000
     140         -0.000000        0.000000        0.00000000        0.00000000        0.00000000        0.00000000        0.00000000        0.00000000        0.00000000        0.00000000        0.00000000
     141         -0.000000        0.000000        0.00000000        0.00000000        0.00000000        0.00000000        0.00000000        0.00000000        0.00000000        0.00000000        0.00000000
     142         -0.000000        0.000000        0.00000000        0.00000000        0.00000000        0.00000000        0.00000000        0.00000000        0.00000000        0.00000000        0.00000000
     143         -0.000000        0.000000        0.00000000        0.00000000        0.00000000        0.00000000        0.00000000        0.00000000        0.00000000        0.00000000        0.00000000
     144         -0.000000        0.000000        0.00000000        0.00000000        0.00000000        0.00000000        0.00000000        0.00000000        0.00000000        0.00000000        0.00000000