# Projected DOS for atomic kind Li at iteration step i = 0, E(Fermi) =    -0.189541 a.u.
#     MO Eigenvalue [a.u.]      Occupation                 s                py                pz                px
       1         -2.017164        1.000000        0.98520645        0.00000000        0.00000000        0.00000001
       2         -0.884131        1.000000        0.08301408        0.00000000        0.00000044        0.00000056
       3         -0.867481        1.000000        0.00000000        0.00094707        0.00064325        0.00056063
       4         -0.864407        1.000000        0.00000127        0.00009042        0.00064914        0.00152993
       5         -0.863966        1.000000        0.00001761        0.00117993        0.00093734        0.00013573
       6         -0.831150        1.000000        0.00017357        0.00000004        0.00000022        0.00000023
       7         -0.830722        1.000000        0.00000854        0.00000007        0.00000001        0.00000021
       8         -0.830015        1.000000        0.00000111        0.00000053        0.00000003        0.00000033
       9         -0.827870        1.000000        0.00000008        0.00000000        0.00000000        0.00000056
      10         -0.827727        1.000000        0.00000276        0.00000001        0.00000038        0.00000060
      11         -0.794807        1.000000        0.00000039        0.00000203        0.00000127        0.00000094
      12         -0.792802        1.000000        0.00000069        0.00000076        0.00000003        0.00000070
      13         -0.790939        1.000000        0.00000075        0.00000007        0.00000051        0.00000003
      14         -0.760975        1.000000        0.00000213        0.00000047        0.00000043        0.00000002
      15         -0.760459        1.000000        0.00000050        0.00000029        0.00000031        0.00000069
      16         -0.760037        1.000000        0.00000002        0.00000002        0.00000022        0.00000022
      17         -0.759510        1.000000        0.00000035        0.00000002        0.00000000        0.00000002
      18         -0.715056        1.000000        0.00000209        0.00000005        0.00000000        0.00000000
      19         -0.714542        1.000000        0.00000069        0.00000001        0.00000000        0.00000001
      20         -0.714235        1.000000        0.00000028        0.00000001        0.00000000        0.00000000
      21         -0.713822        1.000000        0.00000004        0.00000004        0.00000000        0.00000001
      22         -0.713518        1.000000        0.00000003        0.00000003        0.00000000        0.00000004
      23         -0.696704        1.000000        0.00000001        0.00000000        0.00000008        0.00000000
      24         -0.696492        1.000000        0.00000111        0.00000000        0.00000002        0.00000001
      25         -0.696316        1.000000        0.00000002        0.00000000        0.00000000        0.00000001
      26         -0.695626        1.000000        0.00000045        0.00000003        0.00000002        0.00000000
      27         -0.645329        1.000000        0.00000054        0.00000000        0.00000011        0.00000019
      28         -0.644436        1.000000        0.00000008        0.00000001        0.00000004        0.00000000
      29         -0.643654        1.000000        0.00000016        0.00000006        0.00000000        0.00000000
      30         -0.640150        1.000000        0.00000003        0.00000004        0.00000011        0.00000002
      31         -0.639007        1.000000        0.00000014        0.00000032        0.00000000        0.00000046
      32         -0.635777        1.000000        0.00000000        0.00000660        0.00000786        0.00000625
      33         -0.633931        1.000000        0.00000010        0.00001015        0.00001045        0.00000007
      34         -0.633612        1.000000        0.00000000        0.00000542        0.00000310        0.00001134
      35         -0.595294        1.000000        0.00000035        0.00000003        0.00000001        0.00000003
      36         -0.594473        1.000000        0.00000003        0.00000014        0.00000005        0.00000000
      37         -0.593597        1.000000        0.00000008        0.00000001        0.00000008        0.00000000
      38         -0.560225        1.000000        0.00000019        0.00000000        0.00000001        0.00000004
      39         -0.558787        1.000000        0.00000056        0.00000000        0.00000007        0.00000000
      40         -0.556799        1.000000        0.00000024        0.00000001        0.00000001        0.00000000
      41         -0.556706        1.000000        0.00000000        0.00000008        0.00000000        0.00000000
      42         -0.555804        1.000000        0.00000007        0.00000000        0.00000002        0.00000003
      43         -0.555609        1.000000        0.00000021        0.00000002        0.00000001        0.00000001
      44         -0.555198        1.000000        0.00000025        0.00000005        0.00000000        0.00000003
      45         -0.552014        1.000000        0.00000002        0.00000000        0.00000000        0.00000001
      46         -0.537799        1.000000        0.00050614        0.00000000        0.00000002        0.00000000
      47         -0.497094        1.000000        0.00000002        0.00000000        0.00000000        0.00000004
      48         -0.495850        1.000000        0.00000011        0.00000001        0.00000002        0.00000000
      49         -0.495101        1.000000        0.00000001        0.00000002        0.00000000        0.00000002
      50         -0.494738        1.000000        0.00000015        0.00000006        0.00000006        0.00000003
      51         -0.472465        1.000000        0.00000027        0.00000001        0.00000005        0.00000000
      52         -0.472020        1.000000        0.00000001        0.00000001        0.00000006        0.00000003
      53         -0.469576        1.000000        0.00000011        0.00000001        0.00000008        0.00000017
      54         -0.468751        1.000000        0.00000004        0.00000006        0.00000001        0.00000004
      55         -0.467789        1.000000        0.00000005        0.00000089        0.00000007        0.00000001
      56         -0.460199        1.000000        0.00000019        0.00000895        0.00000323        0.00000397
      57         -0.457367        1.000000        0.00000007        0.00001273        0.00000941        0.00000382
      58         -0.456906        1.000000        0.00000002        0.00000084        0.00001029        0.00002108
      59         -0.435467        1.000000        0.00000061        0.00000274        0.00000017        0.00000069
      60         -0.434857        1.000000        0.00002109        0.00000000        0.00000000        0.00000001
      61         -0.432927        1.000000        0.00002173        0.00000000        0.00000059        0.00000004
      62         -0.432185        1.000000        0.00513097        0.00000006        0.00000043        0.00000063
      63         -0.412081        1.000000        0.00000001        0.00078380        0.00014531        0.00038077
      64         -0.411554        1.000000        0.00000007        0.00114928        0.00094847        0.00076032
      65         -0.411465        1.000000        0.00000007        0.00001170        0.00000016        0.00000204
      66         -0.411102        1.000000        0.00000002        0.00114951        0.00112326        0.00050496
      67         -0.410557        1.000000        0.00000001        0.00003987        0.00009509        0.00001270
      68         -0.408361        1.000000        0.00000023        0.00028146        0.00177646        0.00513982
      69         -0.407879        1.000000        0.00000100        0.00372903        0.00308324        0.00036995
      70         -0.393467        1.000000        0.00000050        0.00000042        0.00000013        0.00000018
      71         -0.393050        1.000000        0.00000378        0.00000045        0.00000001        0.00000000
      72         -0.391743        1.000000        0.00000027        0.00000002        0.00000001        0.00000018
      73         -0.390564        1.000000        0.00000000        0.00000005        0.00000000        0.00000011
      74         -0.389978        1.000000        0.00000017        0.00000015        0.00000031        0.00000015
      75         -0.378966        1.000000        0.00000019        0.00000002        0.00000000        0.00000003
      76         -0.378773        1.000000        0.00000001        0.00000002        0.00000000        0.00000006
      77         -0.377741        1.000000        0.00000008        0.00000056        0.00000001        0.00000032
      78         -0.376804        1.000000        0.00000018        0.00000003        0.00000000        0.00000001
      79         -0.371908        1.000000        0.00000015        0.00000002        0.00000001        0.00000002
      80         -0.370414        1.000000        0.00001513        0.00000003        0.00000047        0.00000042
      81         -0.369567        1.000000        0.00000021        0.00000003        0.00000001        0.00000008
      82         -0.368985        1.000000        0.00000045        0.00000018        0.00000003        0.00000018
      83         -0.368191        1.000000        0.00000163        0.00000013        0.00000008        0.00000008
      84         -0.367315        1.000000        0.00000032        0.00000039        0.00000009        0.00000055
      85         -0.365186        1.000000        0.00000007        0.00000040        0.00000000        0.00000001
      86         -0.364194        1.000000        0.00000002        0.00000000        0.00000015        0.00000258
      87         -0.351330        1.000000        0.00000013        0.00000001        0.00000007        0.00000000
      88         -0.350701        1.000000        0.00000015        0.00000002        0.00000004        0.00000007
      89         -0.349042        1.000000        0.00000000        0.00000011        0.00000014        0.00000013
      90         -0.347916        1.000000        0.00000007        0.00000016        0.00000024        0.00000002
      91         -0.321872        1.000000        0.00000005        0.00000427        0.00000663        0.00000007
      92         -0.318902        1.000000        0.00000017        0.00000363        0.00000268        0.00000003
      93         -0.317335        1.000000        0.00000007        0.00000071        0.00000127        0.00000001
      94         -0.315536        1.000000        0.00000074        0.00000003        0.00000001        0.00000001
      95         -0.315170        1.000000        0.00000035        0.00000000        0.00000001        0.00000000
      96         -0.312821        1.000000        0.00000017        0.00000000        0.00000000        0.00000001
      97         -0.312601        1.000000        0.00000021        0.00000001        0.00000008        0.00000000
      98         -0.311818        1.000000        0.00000327        0.00000004        0.00000000        0.00000000
      99         -0.305173        1.000000        0.00000010        0.00000004        0.00000006        0.00000008
     100         -0.303557        1.000000        0.00000004        0.00000006        0.00000009        0.00000003
     101         -0.303112        1.000000        0.00000012        0.00000000        0.00000001        0.00000000
     102         -0.301245        1.000000        0.00000003        0.00000040        0.00000021        0.00000006
     103         -0.299678        1.000000        0.00000060        0.00000028        0.00000071        0.00000017
     104         -0.299232        1.000000        0.00000049        0.00000010        0.00000028        0.00000221
     105         -0.298464        1.000000        0.00000020        0.00000151        0.00000252        0.00000268
     106         -0.297320        1.000000        0.00000000        0.00000299        0.00000017        0.00000005
     107         -0.297163        1.000000        0.00000006        0.00000529        0.00000674        0.00001438
     108         -0.243580        1.000000        0.00000155        0.00000006        0.00000010        0.00000016
     109         -0.242547        1.000000        0.00000340        0.00000011        0.00000001        0.00000056
     110         -0.241837        1.000000        0.00000118        0.00000008        0.00000016        0.00000002
     111         -0.241264        1.000000        0.00000188        0.00000003        0.00000004        0.00000003
     112         -0.241220        1.000000        0.00000661        0.00000075        0.00000006        0.00000008
     113         -0.236905        1.000000        0.00000436        0.00000001        0.00000091        0.00000004
     114         -0.236141        1.000000        0.00000332        0.00000001        0.00000010        0.00000001
     115         -0.234662        1.000000        0.00002336        0.00000055        0.00000001        0.00000001
     116         -0.233011        1.000000        0.00000069        0.00000000        0.00000006        0.00000001
     117         -0.198243        1.000000        0.00000085        0.00000009        0.00000049        0.00000098
     118         -0.196145        1.000000        0.00000121        0.00000053        0.00000616        0.00000111
     119         -0.194514        1.000000        0.00000074        0.00000032        0.00000058        0.00000780
     120         -0.190812        1.000000        0.00000319        0.00000586        0.00001037        0.00000068
     121         -0.189541        1.000000        0.00000039        0.00000114        0.00000011        0.00000024
     122         -0.133771        0.000000        0.00000129        0.00014289        0.00006627        0.00001904
     123         -0.132774        0.000000        0.00000486        0.00006999        0.00009993        0.00000007
     124         -0.132565        0.000000        0.00000182        0.00002131        0.00001780        0.00006462
     125         -0.094724        0.000000        0.00006607        0.00000113        0.00000042        0.00000000
     126         -0.094070        0.000000        0.00014247        0.00000436        0.00000103        0.00000082
     127         -0.091515        0.000000        0.00784852        0.00000027        0.00000007        0.00000123
     128         -0.088864        0.000000        0.47644156        0.00000616        0.00000011        0.00001050
     129         -0.059341        0.000000        0.00000122        0.00008068        0.00001070        0.00001726
     130         -0.056881        0.000000        0.00002213        0.00001760        0.00000422        0.00000001
     131         -0.054378        0.000000        0.00011030        0.00000301        0.00000155        0.00000174
     132         -0.053426        0.000000        0.00000031        0.00000315        0.00002568        0.00000148
     133         -0.052113        0.000000        0.00005130        0.00000194        0.00006160        0.00000013
     134         -0.049773        0.000000        0.00001136        0.00001190        0.00001260        0.00000081
     135         -0.049198        0.000000        0.00000328        0.00000754        0.00000014        0.00000002
     136         -0.047338        0.000000        0.00000036        0.00000881        0.00000094        0.00004778
     137         -0.004035        0.000000        0.00000002        0.22518097        0.14387447        0.19298893
     138         -0.002607        0.000000        0.00000587        0.07421819        0.12966816        0.36167174
     139         -0.002551        0.000000        0.00000255        0.26603845        0.29434121        0.00784554
     140          0.000606        0.000000        0.00000069        0.00062982        0.00067565        0.00089187
     141          0.002313        0.000000        0.00000204        0.00033456        0.00041783        0.00111713
     142          0.002534        0.000000        0.00000024        0.00168179        0.00087586        0.00457738
     143          0.005083        0.000000        0.00000027        0.00000191        0.00001963        0.00021475
     144          0.007523        0.000000        0.00000479        0.00127516        0.00006827        0.00022451
     145          0.018866        0.000000        0.00000103        0.00005482        0.00001676        0.00001182
     146          0.020027        0.000000        0.00000070        0.00000039        0.00002648        0.00024678
     147          0.021689        0.000000        0.00000543        0.00005485        0.00000513        0.00005549
     148          0.022980        0.000000        0.00000266        0.00001060        0.00005197        0.00000362
     149          0.044139        0.000000        0.00000031        0.00002408        0.00000001        0.00002395
     150          0.047462        0.000000        0.00000213        0.00000092        0.00000161        0.00000005
     151          0.048424        0.000000        0.00000671        0.00007939        0.00003099        0.00000014
     152          0.048694        0.000000        0.00000277        0.00000000        0.00000987        0.00002199
     153          0.061280        0.000000        0.00000002        0.00001498        0.00000294        0.00000283
     154          0.065000        0.000000        0.00000162        0.00000534        0.00000167        0.00000062
     155          0.065968        0.000000        0.00000833        0.00003313        0.00002849        0.00000005
     156          0.110827        0.000000        0.00000007        0.00095791        0.00045481        0.00085646
     157          0.114759        0.000000        0.00000041        0.00026115        0.00067638        0.00158686
     158          0.115350        0.000000        0.00000002        0.00119266        0.00123868        0.00015890
     159          0.138017        0.000000        0.00013898        0.00000231        0.00000140        0.00001940
     160          0.140038        0.000000        0.00000039        0.00000872        0.00000078        0.00000208
     161          0.140701        0.000000        0.00000394        0.00000008        0.00001086        0.00000059
     162          0.142692        0.000000        0.00000832        0.00000054        0.00000062        0.00000023
     163          0.144083        0.000000        0.00000921        0.00000025        0.00000559        0.00002553
     164          0.148414        0.000000        0.00000019        0.00003978        0.00000059        0.00000861
     165          0.149296        0.000000        0.00000087        0.00000052        0.00001118        0.00000960
     166          0.157922        0.000000        0.00000172        0.00006259        0.00000294        0.00000428
     167          0.174137        0.000000        0.00002308        0.00003204        0.00000011        0.00000445
     168          0.175408        0.000000        0.00000697        0.00003059        0.00002278        0.00004804
     169          0.176031        0.000000        0.00002492        0.00037698        0.00015560        0.00000130
     170          0.177552        0.000000        0.00002309        0.00012221        0.00011738        0.00012232
     171          0.181666        0.000000        0.00020196        0.00000581        0.00012468        0.00000354
     172          0.181342        0.000000        0.00014118        0.00035568        0.00000031        0.00071890
     173          0.182077        0.000000        0.00000149        0.00014215        0.00063756        0.00000003
     174          0.187976        0.000000        0.06569559        0.00004731        0.00000030        0.00000977
     175          0.190499        0.000000        0.08272205        0.00000632        0.00000010        0.00003336
     176          0.191566        0.000000        0.00006292        0.00001041        0.00000177        0.00004209
     177          0.192432        0.000000        0.00238732        0.00000131        0.00003580        0.00000003
     178          0.195142        0.000000        0.00107036        0.00001067        0.00000000        0.00001057
     179          0.196666        0.000000        0.00000111        0.00000121        0.00000519        0.00003514
     180          0.207940        0.000000        0.00000278        0.06459187        0.03478583        0.02335730
     181          0.209986        0.000000        0.00001682        0.01447406        0.00866932        0.09987243
     182          0.210244        0.000000        0.00001499        0.04419275        0.07892732        0.00002039
     183          0.217719        0.000000        0.00001439        0.00002452        0.00008078        0.00006682
     184          0.219718        0.000000        0.00000215        0.00001925        0.00000649        0.00000821
     185          0.221242        0.000000        0.00000096        0.00000023        0.00000214        0.00000924
     186          0.223113        0.000000        0.00000290        0.00000238        0.00000178        0.00001688
     187          0.225242        0.000000        0.00000152        0.00000312        0.00000000        0.00000495
     188          0.229896        0.000000        0.00001718        0.00001604        0.00001796        0.00002653
     189          0.231547        0.000000        0.00006963        0.00000082        0.00000053        0.00001320
     190          0.232696        0.000000        0.00068624        0.00000024        0.00000445        0.00000106
     191          0.233476        0.000000        0.00030347        0.00000130        0.00000189        0.00000011
     192          0.236443        0.000000        0.00000001        0.00009415        0.00082831        0.00000092
     193          0.238072        0.000000        0.00000089        0.00008229        0.00007255        0.00030172
     194          0.239167        0.000000        0.00000197        0.00023791        0.00028624        0.00026749
     195          0.247538        0.000000        0.00000006        0.00000083        0.00000444        0.00000296
     196          0.250077        0.000000        0.00000087        0.00003412        0.00015679        0.00000318
     197          0.252011        0.000000        0.00000007        0.00004074        0.00001810        0.00000256
     198          0.253601        0.000000        0.00000010        0.00001396        0.00002061        0.00008207
     199          0.256662        0.000000        0.00000004        0.00005678        0.00000182        0.00000363
     200          0.275067        0.000000        0.00000014        0.00000340        0.00000002        0.00006068
     201          0.276562        0.000000        0.00000022        0.00001651        0.00000305        0.00002422
     202          0.278130        0.000000        0.00000062        0.00015315        0.00002913        0.00014591
     203          0.278500        0.000000        0.00000006        0.00001561        0.00015664        0.00001491
     204          0.288108        0.000000        0.00000002        0.00009850        0.00006309        0.00001335
     205          0.293862        0.000000        0.00000005        0.00003084        0.00015866        0.00006777
     206          0.295077        0.000000        0.00000005        0.00015081        0.00000002        0.00010965
     207          0.321497        0.000000        0.00000002        0.00000532        0.00000005        0.00000019
     208          0.322582        0.000000        0.00000079        0.00000095        0.00000019        0.00000208
     209          0.323319        0.000000        0.00000052        0.00000303        0.00000031        0.00000196
     210          0.324767        0.000000        0.00000013        0.00000738        0.00000778        0.00000003
     211          0.325683        0.000000        0.00000020        0.00001286        0.00000231        0.00000531
     212          0.328337        0.000000        0.00000002        0.00000058        0.00000491        0.00000296
     213          0.333028        0.000000        0.00005755        0.00000034        0.00000002        0.00000037
     214          0.336149        0.000000        0.00000329        0.00000000        0.00000003        0.00000098
     215          0.336328        0.000000        0.00001581        0.00000011        0.00000000        0.00000006
     216          0.338197        0.000000        0.00000381        0.00000079        0.00000008        0.00000030
     217          0.338506        0.000000        0.00003938        0.00000034        0.00000000        0.00000041
     218          0.344041        0.000000        0.00000347        0.00000000        0.00000120        0.00000001
     219          0.344619        0.000000        0.00000290        0.00000010        0.00000005        0.00000050
     220          0.345609        0.000000        0.00002600        0.00000012        0.00000023        0.00000006
     221          0.345916        0.000000        0.00000162        0.00000005        0.00000100        0.00000019
     222          0.347304        0.000000        0.00010663        0.00000175        0.00000024        0.00000020
     223          0.348165        0.000000        0.00001305        0.00000012        0.00000074        0.00000136
     224          0.349659        0.000000        0.00000365        0.00000002        0.00000006        0.00000011
     225          0.352228        0.000000        0.00000097        0.00000212        0.00000069        0.00000119
     226          0.354672        0.000000        0.00000151        0.00000223        0.00000023        0.00000140
     227          0.398799        0.000000        0.00000003        0.00000005        0.00000013        0.00000001
     228          0.401043        0.000000        0.00000054        0.00000020        0.00000031        0.00000001
     229          0.407009        0.000000        0.00000204        0.00000002        0.00000026        0.00000020
     230          0.409299        0.000000        0.00000117        0.00000038        0.00000416        0.00002559
     231          0.412406        0.000000        0.00000106        0.00002037        0.00002891        0.00000349
     232          0.413730        0.000000        0.00000419        0.00000135        0.00000016        0.00000949
     233          0.415981        0.000000        0.00000781        0.00002402        0.00004895        0.00000068
     234          0.417192        0.000000        0.00000188        0.00000021        0.00000062        0.00000431
     235          0.421635        0.000000        0.00045875        0.00000000        0.00000248        0.00000114
     236          0.424043        0.000000        0.00000723        0.00000003        0.00000000        0.00000052
     237          0.424973        0.000000        0.00000718        0.00000036        0.00000018        0.00000013
     238          0.427381        0.000000        0.00000666        0.00000292        0.00000058        0.00000000
     239          0.430762        0.000000        0.00000264        0.00000003        0.00000003        0.00000048
     240          0.435264        0.000000        0.00000819        0.00003576        0.00000330        0.00001587
     241          0.435502        0.000000        0.00000406        0.00000613        0.00000050        0.00004342
     242          0.436201        0.000000        0.00000000        0.00001344        0.00000220        0.00002038
     243          0.437593        0.000000        0.00000007        0.00000301        0.00001339        0.00002556
     244          0.444728        0.000000        0.00000165        0.00003148        0.00000008        0.00000089
     245          0.446247        0.000000        0.00000099        0.00003526        0.00002476        0.00000000
     246          0.447278        0.000000        0.00000005        0.00044075        0.00034341        0.00002039
     247          0.449820        0.000000        0.00000046        0.00008401        0.00007557        0.00172564
     248          0.450043        0.000000        0.00000023        0.00054990        0.00069073        0.00000005
     249          0.451777        0.000000        0.00000025        0.00000112        0.00002646        0.00001868
     250          0.453793        0.000000        0.00000380        0.00000605        0.00002258        0.00001947
     251          0.455525        0.000000        0.00001137        0.00000021        0.00000094        0.00000055
     252          0.459027        0.000000        0.00000078        0.00001355        0.00000382        0.00001790
     253          0.461692        0.000000        0.00000686        0.00000927        0.00001792        0.00000070
     254          0.461831        0.000000        0.00005702        0.00000175        0.00000929        0.00000216
     255          0.479391        0.000000        0.00129007        0.00000196        0.00000436        0.00000590
     256          0.480572        0.000000        0.00003118        0.00003834        0.00002092        0.00002243
     257          0.481106        0.000000        0.00000001        0.00000294        0.00000204        0.00000043
     258          0.483506        0.000000        0.00001464        0.00000259        0.00001190        0.00005337
     259          0.484688        0.000000        0.00000006        0.00001344        0.00002632        0.00000045