# Projected DOS for atomic kind Li at iteration step i = 0, E(Fermi) =    -0.088732 a.u.
#     MO Eigenvalue [a.u.]      Occupation                 s                py                pz                px
       1         -1.948023        1.000000        0.99866807        0.00000135        0.00000004        0.00001618
       2         -0.821460        1.000000        0.02008326        0.00076830        0.00080961        0.00005680
       3         -0.811963        1.000000        0.02864510        0.00000175        0.00153767        0.00007046
       4         -0.797722        1.000000        0.03051486        0.00102546        0.00060948        0.00061491
       5         -0.781634        1.000000        0.00009480        0.00070421        0.00009217        0.00123346
       6         -0.770427        1.000000        0.00513234        0.00000087        0.00002663        0.00000650
       7         -0.753554        1.000000        0.00035518        0.00000038        0.00000296        0.00009566
       8         -0.751119        1.000000        0.00047298        0.00004402        0.00006368        0.00002673
       9         -0.746850        1.000000        0.00005169        0.00012445        0.00000204        0.00003673
      10         -0.742622        1.000000        0.00004269        0.00000439        0.00003899        0.00000299
      11         -0.719750        1.000000        0.00049301        0.00002400        0.00000206        0.00002149
      12         -0.704754        1.000000        0.00015824        0.00002928        0.00000025        0.00000055
      13         -0.702201        1.000000        0.00012324        0.00000002        0.00001198        0.00002876
      14         -0.680769        1.000000        0.00003511        0.00003825        0.00015716        0.00004689
      15         -0.674155        1.000000        0.00011507        0.00001244        0.00009077        0.00000370
      16         -0.663304        1.000000        0.00003015        0.00000102        0.00004102        0.00003802
      17         -0.661001        1.000000        0.00004352        0.00000204        0.00000422        0.00000720
      18         -0.640852        1.000000        0.00014810        0.00001844        0.00009076        0.00006787
      19         -0.627425        1.000000        0.00002486        0.00008753        0.00000199        0.00000025
      20         -0.620192        1.000000        0.00018863        0.00002323        0.00003584        0.00004101
      21         -0.614406        1.000000        0.00001089        0.00000016        0.00000869        0.00000319
      22         -0.613651        1.000000        0.00000667        0.00000187        0.00000394        0.00000751
      23         -0.601473        1.000000        0.00000427        0.00000045        0.00000113        0.00001782
      24         -0.598864        1.000000        0.00003061        0.00003698        0.00009076        0.00014285
      25         -0.597368        1.000000        0.00002587        0.00000018        0.00000317        0.00000251
      26         -0.596179        1.000000        0.00001219        0.00000318        0.00001722        0.00001740
      27         -0.554786        1.000000        0.00006216        0.00001510        0.00000013        0.00000033
      28         -0.549210        1.000000        0.00006293        0.00002543        0.00013779        0.00002055
      29         -0.546115        1.000000        0.00000998        0.00000001        0.00000870        0.00001447
      30         -0.545194        1.000000        0.00000414        0.00000571        0.00000310        0.00002600
      31         -0.541276        1.000000        0.00000637        0.00000058        0.00000080        0.00000156
      32         -0.538340        1.000000        0.00002322        0.00000063        0.00000007        0.00012077
      33         -0.535325        1.000000        0.00000271        0.00003384        0.00003662        0.00002179
      34         -0.534672        1.000000        0.00000802        0.00000040        0.00004049        0.00000097
      35         -0.500777        1.000000        0.00001265        0.00000368        0.00002658        0.00000959
      36         -0.497962        1.000000        0.00001202        0.00000268        0.00000046        0.00000306
      37         -0.493761        1.000000        0.00000123        0.00000042        0.00000118        0.00000414
      38         -0.465821        1.000000        0.00003053        0.00000933        0.00000007        0.00003191
      39         -0.465046        1.000000        0.00002172        0.00000000        0.00000893        0.00000044
      40         -0.460101        1.000000        0.00000133        0.00001438        0.00000213        0.00002451
      41         -0.458978        1.000000        0.00001053        0.00002121        0.00001710        0.00000024
      42         -0.456287        1.000000        0.00000880        0.00000096        0.00000775        0.00003410
      43         -0.455506        1.000000        0.00000041        0.00000002        0.00000478        0.00000200
      44         -0.454446        1.000000        0.00000062        0.00000673        0.00000066        0.00000057
      45         -0.452166        1.000000        0.00000474        0.00000273        0.00000054        0.00001071
      46         -0.438540        1.000000        0.00050173        0.00000016        0.00000564        0.00000112
      47         -0.403771        1.000000        0.00001308        0.00004861        0.00000016        0.00001274
      48         -0.399357        1.000000        0.00000214        0.00000002        0.00000839        0.00001770
      49         -0.396574        1.000000        0.00000078        0.00002109        0.00000612        0.00007033
      50         -0.395275        1.000000        0.00000120        0.00000633        0.00000554        0.00001207
      51         -0.376639        1.000000        0.00000611        0.00000962        0.00000018        0.00003961
      52         -0.374339        1.000000        0.00000569        0.00006223        0.00000520        0.00001948
      53         -0.372061        1.000000        0.00000503        0.00000885        0.00003331        0.00000200
      54         -0.370592        1.000000        0.00000395        0.00000216        0.00000744        0.00001419
      55         -0.368140        1.000000        0.00000143        0.00000002        0.00002014        0.00000082
      56         -0.363076        1.000000        0.00017957        0.00000001        0.00000556        0.00018142
      57         -0.358648        1.000000        0.00001604        0.00000813        0.00006386        0.00000434
      58         -0.357443        1.000000        0.00000829        0.00000294        0.00000312        0.00000106
      59         -0.346875        1.000000        0.00434007        0.00000075        0.00000885        0.00038029
      60         -0.337936        1.000000        0.00002000        0.00000597        0.00004839        0.00007473
      61         -0.335593        1.000000        0.00002945        0.00000144        0.00000649        0.00000039
      62         -0.332721        1.000000        0.00013522        0.00002577        0.00000092        0.00006009
      63         -0.325723        1.000000        0.00005004        0.00088669        0.00092880        0.00520713
      64         -0.321847        1.000000        0.00004447        0.00305686        0.00273710        0.00211354
      65         -0.315771        1.000000        0.00001105        0.00404565        0.00329243        0.00018611
      66         -0.313278        1.000000        0.00000153        0.00026523        0.00004914        0.00003172
      67         -0.312555        1.000000        0.00003949        0.00000634        0.00059880        0.00000022
      68         -0.310544        1.000000        0.00001313        0.00013190        0.00067903        0.00000002
      69         -0.310134        1.000000        0.00001403        0.00000327        0.00022878        0.00001751
      70         -0.295249        1.000000        0.00000247        0.00001343        0.00000315        0.00002711
      71         -0.293750        1.000000        0.00000987        0.00000013        0.00001898        0.00000409
      72         -0.292820        1.000000        0.00000822        0.00000197        0.00000058        0.00009888
      73         -0.291440        1.000000        0.00000124        0.00007497        0.00000036        0.00003843
      74         -0.288972        1.000000        0.00000637        0.00000152        0.00001614        0.00000736
      75         -0.281332        1.000000        0.00002468        0.00000593        0.00005236        0.00001057
      76         -0.279090        1.000000        0.00000912        0.00000521        0.00000034        0.00002481
      77         -0.277984        1.000000        0.00002683        0.00000038        0.00000025        0.00008791
      78         -0.276875        1.000000        0.00002924        0.00005512        0.00001741        0.00001046
      79         -0.275781        1.000000        0.00006592        0.00001155        0.00005208        0.00003966
      80         -0.274762        1.000000        0.00000682        0.00000168        0.00000050        0.00005889
      81         -0.272935        1.000000        0.00002782        0.00000235        0.00000010        0.00000719
      82         -0.271637        1.000000        0.00000372        0.00001039        0.00001256        0.00003983
      83         -0.271024        1.000000        0.00000273        0.00000072        0.00000108        0.00003357
      84         -0.269118        1.000000        0.00000102        0.00009994        0.00000012        0.00002423
      85         -0.268624        1.000000        0.00000194        0.00000037        0.00002094        0.00000493
      86         -0.267912        1.000000        0.00000674        0.00001543        0.00000336        0.00001690
      87         -0.251345        1.000000        0.00000507        0.00002153        0.00000007        0.00008310
      88         -0.250348        1.000000        0.00000513        0.00000511        0.00000011        0.00000188
      89         -0.247403        1.000000        0.00000070        0.00000060        0.00001318        0.00000000
      90         -0.246945        1.000000        0.00000135        0.00000542        0.00000061        0.00001914
      91         -0.227256        1.000000        0.00001125        0.00001659        0.00001340        0.00006113
      92         -0.221879        1.000000        0.00000220        0.00003344        0.00000538        0.00000312
      93         -0.219864        1.000000        0.00000668        0.00003698        0.00001564        0.00002040
      94         -0.215798        1.000000        0.00000081        0.00000040        0.00000555        0.00000010
      95         -0.214585        1.000000        0.00000478        0.00000002        0.00000260        0.00000648
      96         -0.212855        1.000000        0.00000101        0.00000001        0.00000094        0.00000790
      97         -0.211537        1.000000        0.00000055        0.00000204        0.00000006        0.00001135
      98         -0.210727        1.000000        0.00000226        0.00000233        0.00000705        0.00000803
      99         -0.205438        1.000000        0.00000067        0.00000002        0.00000309        0.00000002
     100         -0.202819        1.000000        0.00000235        0.00000345        0.00001162        0.00000405
     101         -0.201733        1.000000        0.00000054        0.00003057        0.00000008        0.00008310
     102         -0.200701        1.000000        0.00000094        0.00003272        0.00000585        0.00003400
     103         -0.200550        1.000000        0.00000161        0.00011500        0.00000843        0.00022649
     104         -0.199304        1.000000        0.00000063        0.00000496        0.00000418        0.00000408
     105         -0.198516        1.000000        0.00000072        0.00000378        0.00000767        0.00000113
     106         -0.197707        1.000000        0.00000353        0.00000697        0.00000008        0.00000671
     107         -0.197515        1.000000        0.00000068        0.00001079        0.00000023        0.00000471
     108         -0.145917        1.000000        0.00000082        0.00000646        0.00000469        0.00003097
     109         -0.144422        1.000000        0.00000342        0.00000621        0.00000656        0.00000862
     110         -0.143703        1.000000        0.00000033        0.00002949        0.00000304        0.00002383
     111         -0.142290        1.000000        0.00000048        0.00000409        0.00000302        0.00000140
     112         -0.141730        1.000000        0.00004514        0.00009052        0.00003248        0.00007296
     113         -0.137200        1.000000        0.00000065        0.00003000        0.00002142        0.00000957
     114         -0.136711        1.000000        0.00000341        0.00000331        0.00000240        0.00002721
     115         -0.133611        1.000000        0.00001385        0.00002711        0.00002705        0.00000191
     116         -0.132472        1.000000        0.00000115        0.00001648        0.00000074        0.00003123
     117         -0.099405        1.000000        0.00000092        0.00000093        0.00000895        0.00001912
     118         -0.096938        1.000000        0.00000190        0.00001313        0.00000244        0.00000077
     119         -0.095290        1.000000        0.00000222        0.00000075        0.00001222        0.00006798
     120         -0.089655        1.000000        0.00000082        0.00000757        0.00001442        0.00000632
     121         -0.088732        1.000000        0.00001749        0.00001787        0.00000072        0.00004049
     122         -0.034200        0.000000        0.00000788        0.00043751        0.00020359        0.00010401
     123         -0.033658        0.000000        0.00000302        0.00002060        0.00010925        0.00017660
     124         -0.033108        0.000000        0.00002957        0.00071454        0.00007446        0.00017251
     125         -0.000000        0.000000        0.00000000        0.00000000        0.00000000        0.00000000
     126         -0.000000        0.000000        0.00000000        0.00000000        0.00000000        0.00000000
     127         -0.000000        0.000000        0.00000000        0.00000000        0.00000000        0.00000000
     128         -0.000000        0.000000        0.00000000        0.00000000        0.00000000        0.00000000
     129         -0.000000        0.000000        0.00000000        0.00000000        0.00000000        0.00000000
     130         -0.000000        0.000000        0.00000000        0.00000000        0.00000000        0.00000000
     131         -0.000000        0.000000        0.00000000        0.00000000        0.00000000        0.00000000
     132         -0.000000        0.000000        0.00000000        0.00000000        0.00000000        0.00000000
     133         -0.000000        0.000000        0.00000000        0.00000000        0.00000000        0.00000000
     134         -0.000000        0.000000        0.00000000        0.00000000        0.00000000        0.00000000
     135         -0.000000        0.000000        0.00000000        0.00000000        0.00000000        0.00000000
     136         -0.000000        0.000000        0.00000000        0.00000000        0.00000000        0.00000000
     137         -0.000000        0.000000        0.00000000        0.00000000        0.00000000        0.00000000
     138         -0.000000        0.000000        0.00000000        0.00000000        0.00000000        0.00000000
     139         -0.000000        0.000000        0.00000000        0.00000000        0.00000000        0.00000000
     140         -0.000000        0.000000        0.00000000        0.00000000        0.00000000        0.00000000
     141         -0.000000        0.000000        0.00000000        0.00000000        0.00000000        0.00000000
     142         -0.000000        0.000000        0.00000000        0.00000000        0.00000000        0.00000000
     143         -0.000000        0.000000        0.00000000        0.00000000        0.00000000        0.00000000
     144         -0.000000        0.000000        0.00000000        0.00000000        0.00000000        0.00000000
     145         -0.000000        0.000000        0.00000000        0.00000000        0.00000000        0.00000000
     146         -0.000000        0.000000        0.00000000        0.00000000        0.00000000        0.00000000
     147         -0.000000        0.000000        0.00000000        0.00000000        0.00000000        0.00000000
     148         -0.000000        0.000000        0.00000000        0.00000000        0.00000000        0.00000000
     149         -0.000000        0.000000        0.00000000        0.00000000        0.00000000        0.00000000
     150         -0.000000        0.000000        0.00000000        0.00000000        0.00000000        0.00000000
     151         -0.000000        0.000000        0.00000000        0.00000000        0.00000000        0.00000000
     152         -0.000000        0.000000        0.00000000        0.00000000        0.00000000        0.00000000
     153         -0.000000        0.000000        0.00000000        0.00000000        0.00000000        0.00000000
     154         -0.000000        0.000000        0.00000000        0.00000000        0.00000000        0.00000000
     155         -0.000000        0.000000        0.00000000        0.00000000        0.00000000        0.00000000
     156         -0.000000        0.000000        0.00000000        0.00000000        0.00000000        0.00000000
     157         -0.000000        0.000000        0.00000000        0.00000000        0.00000000        0.00000000
     158         -0.000000        0.000000        0.00000000        0.00000000        0.00000000        0.00000000
     159         -0.000000        0.000000        0.00000000        0.00000000        0.00000000        0.00000000
     160         -0.000000        0.000000        0.00000000        0.00000000        0.00000000        0.00000000
     161         -0.000000        0.000000        0.00000000        0.00000000        0.00000000        0.00000000
     162         -0.000000        0.000000        0.00000000        0.00000000        0.00000000        0.00000000
     163         -0.000000        0.000000        0.00000000        0.00000000        0.00000000        0.00000000
     164         -0.000000        0.000000        0.00000000        0.00000000        0.00000000        0.00000000
     165         -0.000000        0.000000        0.00000000        0.00000000        0.00000000        0.00000000
     166         -0.000000        0.000000        0.00000000        0.00000000        0.00000000        0.00000000
     167         -0.000000        0.000000        0.00000000        0.00000000        0.00000000        0.00000000
     168         -0.000000        0.000000        0.00000000        0.00000000        0.00000000        0.00000000
     169         -0.000000        0.000000        0.00000000        0.00000000        0.00000000        0.00000000
     170         -0.000000        0.000000        0.00000000        0.00000000        0.00000000        0.00000000
     171         -0.000000        0.000000        0.00000000        0.00000000        0.00000000        0.00000000
     172          0.167298        0.000000        0.00042898        0.00003713        0.00005394        0.00013720
     173          0.184186        0.000000        0.00441713        0.00413187        0.00018386        0.00111251
     174          0.197334        0.000000        0.00016974        0.00000037        0.00014356        0.00019149
     175          0.213426        0.000000        0.00001823        0.00111491        0.00004729        0.00106528
     176          0.222226        0.000000        0.00274985        0.00099894        0.00005481        0.00177454
     177          0.232263        0.000000        0.00007788        0.00173965        0.00045033        0.00002616
     178          0.235368        0.000000        0.00153387        0.00000084        0.00035435        0.00001067
     179          0.240323        0.000000        0.00129910        0.00464366        0.00000021        0.00042579
     180          0.245514        0.000000        0.00131548        0.00004764        0.00070869        0.00002175
     181          0.251204        0.000000        0.00264095        0.00166550        0.00021078        0.00015134
     182          0.251685        0.000000        0.00190209        0.00048175        0.00092560        0.00006237
     183          0.255396        0.000000        0.00002334        0.00066582        0.00001170        0.00014216
     184          0.260718        0.000000        0.00002716        0.00079537        0.00038846        0.00000062
     185          0.268158        0.000000        0.00051113        0.00045790        0.00026215        0.00000302
     186          0.272429        0.000000        0.00032805        0.00065549        0.00044539        0.00020211
     187          0.273852        0.000000        0.00278160        0.00030432        0.00746375        0.00162189
     188          0.275194        0.000000        0.00052602        0.00108722        0.00817083        0.00050343
     189          0.279245        0.000000        0.00559025        0.00096479        0.00093988        0.00026148
     190          0.283585        0.000000        0.01793364        0.00505646        0.00469699        0.01828383
     191          0.288589        0.000000        0.00517814        0.00222525        0.00297403        0.00659873
     192          0.289549        0.000000        0.01151556        0.00002581        0.01019739        0.00483260
     193          0.295981        0.000000        0.01113579        0.00499055        0.01097177        0.00018075
     194          0.301365        0.000000        0.00505139        0.00009200        0.00008993        0.02286127
     195          0.306260        0.000000        0.00015845        0.00366787        0.02502680        0.00202356
     196          0.310288        0.000000        0.00182171        0.00444505        0.00400865        0.01137629
     197          0.314538        0.000000        0.00330858        0.00057030        0.00042832        0.00005570
     198          0.316720        0.000000        0.00090120        0.00656274        0.00106407        0.00407357
     199          0.320373        0.000000        0.00083113        0.00000041        0.01090295        0.00199671
     200          0.323393        0.000000        0.00089133        0.00068909        0.00372426        0.00140050
     201          0.325942        0.000000        0.00943594        0.00720735        0.00211397        0.00584785
     202          0.337660        0.000000        0.00110067        0.00034942        0.00189695        0.00107751
     203          0.338939        0.000000        0.00018002        0.00139716        0.00032031        0.00321010
     204          0.344534        0.000000        0.00010774        0.00193165        0.00004306        0.00003816
     205          0.346641        0.000000        0.00102914        0.00899064        0.00129659        0.00195919
     206          0.351963        0.000000        0.00033716        0.00375085        0.00362648        0.00002155
     207          0.354695        0.000000        0.00014103        0.00101884        0.00015067        0.00084542
     208          0.357026        0.000000        0.00458874        0.00018048        0.00052555        0.00114704
     209          0.361799        0.000000        0.00131180        0.00293496        0.00004430        0.00000908
     210          0.368461        0.000000        0.00074610        0.00007308        0.00022530        0.00034729
     211          0.374736        0.000000        0.00554632        0.00065121        0.00000032        0.00174469
     212          0.379807        0.000000        0.00062470        0.00288097        0.00009998        0.00005654
     213          0.386936        0.000000        0.00074334        0.00009445        0.00081531        0.00000596
     214          0.392370        0.000000        0.00110294        0.00001568        0.00000967        0.00010436
     215          0.392881        0.000000        0.00052817        0.00220963        0.00002144        0.00037389
     216          0.399931        0.000000        0.00168602        0.00005443        0.00016797        0.00001650
     217          0.405476        0.000000        0.00180882        0.00107342        0.00007708        0.00005518
     218          0.413357        0.000000        0.00102259        0.00022560        0.00031604        0.00053073
     219          0.416825        0.000000        0.00231428        0.00000022        0.00043706        0.00016481
     220          0.417780        0.000000        0.00009469        0.00008386        0.00009296        0.00079780
     221          0.425722        0.000000        0.00099801        0.00006229        0.00023481        0.00011281
     222          0.427160        0.000000        0.00008329        0.00031511        0.00021979        0.00007461
     223          0.428872        0.000000        0.00034011        0.00032712        0.00016691        0.00002012
     224          0.432957        0.000000        0.00060368        0.00053421        0.00000412        0.00000089
     225          0.434939        0.000000        0.00000912        0.00006566        0.00011892        0.00007105
     226          0.437880        0.000000        0.00041484        0.00543780        0.00022958        0.00051176
     227          0.438953        0.000000        0.00019336        0.00009335        0.00000476        0.00010202
     228          0.445667        0.000000        0.00009692        0.00009702        0.00011879        0.00014230
     229          0.453803        0.000000        0.00483121        0.00010371        0.00000083        0.00158534
     230          0.459120        0.000000        0.00100399        0.00112819        0.00000410        0.00267787
     231          0.462982        0.000000        0.00012692        0.00118162        0.00053722        0.00024305
     232          0.467953        0.000000        0.00705056        0.00013057        0.00000019        0.00000542
     233          0.473575        0.000000        0.00123043        0.00002157        0.00017721        0.00000540
     234          0.478860        0.000000        0.00029556        0.00015877        0.00004034        0.00038723
     235          0.483034        0.000000        0.00217315        0.00005494        0.00052287        0.00006472
     236          0.486407        0.000000        0.00007734        0.00017989        0.00005627        0.00015340
     237          0.494745        0.000000        0.00022686        0.00079564        0.00001912        0.00015990
     238          0.498341        0.000000        0.00111220        0.00000110        0.00001087        0.00001689
     239          0.502101        0.000000        0.00001330        0.00005556        0.00000515        0.00000595
     240          0.506905        0.000000        0.00010352        0.00037222        0.00003962        0.00074105
     241          0.510272        0.000000        0.00019429        0.00031218        0.00001968        0.00048805
     242          0.511901        0.000000        0.00006391        0.00003738        0.00002343        0.00002200
     243          0.513207        0.000000        0.00039285        0.00000502        0.00031511        0.00006854
     244          0.515322        0.000000        0.00008218        0.00052522        0.00048945        0.00077056
     245          0.518986        0.000000        0.00044272        0.00126790        0.00024160        0.00011689
     246          0.520387        0.000000        0.00077315        0.00033448        0.00063944        0.00012656
     247          0.525722        0.000000        0.00087159        0.00002151        0.00002995        0.00000245
     248          0.530111        0.000000        0.00062881        0.00057156        0.00034150        0.00049565
     249          0.531776        0.000000        0.00041686        0.00108018        0.00000384        0.00003118
     250          0.537022        0.000000        0.00368510        0.00009943        0.00000035        0.00004809
     251          0.539033        0.000000        0.00002794        0.00000040        0.00014373        0.00004940
     252          0.541230        0.000000        0.00137769        0.00004220        0.00109905        0.00011966
     253          0.544619        0.000000        0.00025425        0.00001561        0.00002974        0.00005369
     254          0.548471        0.000000        0.00086021        0.00008443        0.00002712        0.00002325
     255          0.550685        0.000000        0.00142446        0.00087480        0.00018143        0.00003516
     256          0.554214        0.000000        0.00321342        0.00038977        0.00014012        0.00031268
     257          0.559020        0.000000        0.00133998        0.00000000        0.00008852        0.00157026
     258          0.562767        0.000000        0.00080196        0.00002821        0.00131612        0.00019622
     259          0.567514        0.000000        0.00012538        0.00076020        0.00002451        0.00092521