# Projected DOS for atomic kind C at iteration step i = 0, E(Fermi) =    -0.111943 a.u.
#     MO Eigenvalue [a.u.]      Occupation                 s                py                pz                px               d-2               d-1                d0               d+1               d+2
       1         -1.991192        1.000000        0.00945140        0.00349241        0.00347180        0.00263983        0.00032671        0.00019271        0.00021820        0.00028541        0.00028229
       2         -0.870755        1.000000        0.64944630        0.08495587        0.07637661        0.06419667        0.01619399        0.01531554        0.01882497        0.01775668        0.01481546
       3         -0.843481        1.000000        0.51133348        0.12236506        0.10349755        0.18014503        0.02284014        0.00941828        0.00973546        0.01713402        0.02263152
       4         -0.840338        1.000000        0.50828084        0.17454887        0.13126731        0.11048973        0.01935202        0.01788426        0.01525467        0.01145252        0.01827223
       5         -0.836999        1.000000        0.50867631        0.11576157        0.16695445        0.12199145        0.00847667        0.02074883        0.02619447        0.02065059        0.00930320
       6         -0.809742        1.000000        0.40890570        0.15652071        0.19323110        0.15288506        0.01743327        0.02583503        0.01182045        0.02214293        0.01606918
       7         -0.806398        1.000000        0.39184363        0.19286108        0.10400248        0.22144386        0.00355871        0.01892859        0.02057525        0.01605163        0.03491475
       8         -0.803326        1.000000        0.39149263        0.16241869        0.23823706        0.11290039        0.02279025        0.00735591        0.03662057        0.00885452        0.01955146
       9         -0.798697        1.000000        0.38957454        0.18994695        0.14210271        0.18615337        0.03082759        0.01814993        0.02046836        0.01650888        0.00668137
      10         -0.796846        1.000000        0.39012101        0.14308171        0.18746010        0.18758030        0.01668819        0.02254962        0.00683724        0.02906413        0.01733839
      11         -0.771068        1.000000        0.36643995        0.18140271        0.14099801        0.21477827        0.01505521        0.02715080        0.02288471        0.01502604        0.01741470
      12         -0.765948        1.000000        0.36179154        0.15233489        0.23351900        0.15379120        0.02382867        0.01437703        0.01975379        0.01636341        0.02507726
      13         -0.762025        1.000000        0.36038664        0.19752033        0.17298502        0.17290494        0.02157879        0.01640627        0.01799310        0.02592022        0.01479946
      14         -0.736820        1.000000        0.35969874        0.21303999        0.23542602        0.10417183        0.02174881        0.01867093        0.01677978        0.01664177        0.01919978
      15         -0.732596        1.000000        0.36180915        0.24456863        0.08486751        0.21502904        0.01104312        0.01657255        0.02733033        0.01931715        0.02074308
      16         -0.729900        1.000000        0.36074895        0.20537135        0.17404730        0.16641777        0.02399909        0.02258293        0.01312877        0.02264415        0.01208978
      17         -0.728915        1.000000        0.36200477        0.06901297        0.22825534        0.24604954        0.01723927        0.01985747        0.01550812        0.01853335        0.02374311
      18         -0.690210        1.000000        0.36375140        0.23987573        0.14133814        0.16712002        0.02270482        0.01386110        0.02312946        0.01618566        0.01210594
      19         -0.688985        1.000000        0.36528377        0.13268111        0.20817025        0.20567470        0.01184919        0.02456950        0.01157460        0.01967136        0.02056049
      20         -0.686422        1.000000        0.36359539        0.17758316        0.15115446        0.21948381        0.01391571        0.01309537        0.02026269        0.02535023        0.01562776
      21         -0.685222        1.000000        0.36467523        0.14743361        0.24740503        0.15184974        0.02319587        0.01331773        0.02094562        0.01274585        0.01837008
      22         -0.684976        1.000000        0.36566984        0.24133789        0.15120848        0.15316171        0.01867603        0.01625231        0.01756720        0.01863553        0.01751990
      23         -0.670253        1.000000        0.39165284        0.15172076        0.15220611        0.18920368        0.02423315        0.02858706        0.02271234        0.01729004        0.02331756
      24         -0.667612        1.000000        0.38977290        0.19940833        0.14808119        0.14616072        0.02968178        0.01296206        0.01957331        0.02360236        0.03138452
      25         -0.666554        1.000000        0.38691615        0.16026910        0.21958319        0.11794855        0.02462457        0.02456641        0.03410575        0.02200318        0.01034784
      26         -0.664487        1.000000        0.38837296        0.12009022        0.15280559        0.22135492        0.01494699        0.03255547        0.01166115        0.02787247        0.03029963
      27         -0.621814        1.000000        0.46209047        0.12140124        0.15008513        0.12367612        0.05707157        0.01504920        0.04115512        0.01699884        0.01694570
      28         -0.618267        1.000000        0.46595339        0.15002661        0.11080856        0.12293862        0.02402943        0.01812594        0.03735888        0.04150227        0.02935630
      29         -0.614926        1.000000        0.45764466        0.12776736        0.12253223        0.14479761        0.02472520        0.03936820        0.01508564        0.04210739        0.02631547
      30         -0.612772        1.000000        0.36378038        0.20720671        0.14776693        0.19027514        0.01236889        0.03230201        0.01757867        0.01481925        0.01392844
      31         -0.609536        1.000000        0.45831464        0.14533401        0.14564010        0.10204545        0.02936426        0.01901680        0.03726614        0.02510614        0.03836678
      32         -0.608324        1.000000        0.34228600        0.19438007        0.18815662        0.19477620        0.01227684        0.01704244        0.01447054        0.01703428        0.01995360
      33         -0.606424        1.000000        0.30817468        0.20483988        0.19243744        0.23522987        0.00942844        0.01669550        0.01111132        0.01149032        0.01115463
      34         -0.604259        1.000000        0.34939196        0.13563914        0.24047544        0.18838074        0.01218690        0.02291928        0.01151673        0.01176969        0.02768853
      35         -0.569065        1.000000        0.21108620        0.30236968        0.30123230        0.15853583        0.00467112        0.00702615        0.00635323        0.00537498        0.00615670
      36         -0.566037        1.000000        0.20459277        0.23576482        0.17599846        0.35659560        0.00548303        0.00487908        0.00497634        0.00576785        0.00606049
      37         -0.563982        1.000000        0.19324136        0.23095035        0.29370923        0.25511782        0.00656499        0.00457387        0.00568528        0.00665079        0.00410699
      38         -0.538879        1.000000        0.31027567        0.20408042        0.25560009        0.17024099        0.01528011        0.00927070        0.01454300        0.01567797        0.01793960
      39         -0.532444        1.000000        0.39105216        0.18548262        0.15362214        0.17564877        0.01472212        0.02175910        0.01996497        0.01821343        0.02270691
      40         -0.531148        1.000000        0.31192188        0.25502035        0.13303589        0.22973517        0.01397624        0.01666155        0.01787280        0.01264216        0.01007841
      41         -0.529506        1.000000        0.40246384        0.15875781        0.16566384        0.17145103        0.01977313        0.02311828        0.01675897        0.02090366        0.02152810
      42         -0.527876        1.000000        0.31875247        0.20270631        0.20715454        0.19846832        0.01557116        0.01524184        0.01700789        0.01079729        0.01521330
      43         -0.525273        1.000000        0.32904556        0.21417471        0.20795660        0.16966488        0.02117728        0.01047933        0.01336375        0.02084243        0.01401121
      44         -0.524676        1.000000        0.39249388        0.18210586        0.16035753        0.16481893        0.01666946        0.01833378        0.02530170        0.01755003        0.02237054
      45         -0.522663        1.000000        0.30331964        0.19025532        0.19873093        0.23422472        0.01357409        0.01887717        0.01316488        0.01539807        0.01264036
      46         -0.512263        1.000000        0.02185390        0.26605870        0.35551607        0.32123260        0.00657007        0.00831674        0.00818579        0.00736660        0.01098195
      47         -0.474236        1.000000        0.17372312        0.21071533        0.27956271        0.25228546        0.02396876        0.02237494        0.01175705        0.02757655        0.01211518
      48         -0.472304        1.000000        0.16953211        0.24354111        0.24940617        0.25276155        0.01640892        0.01532736        0.01908081        0.01674578        0.02804915
      49         -0.468801        1.000000        0.16830495        0.24016682        0.24996399        0.24578604        0.01948062        0.01939023        0.02614940        0.01677532        0.01450967
      50         -0.465934        1.000000        0.16613236        0.25048230        0.24072447        0.24623595        0.01903775        0.01962010        0.01968889        0.01624371        0.02192996
      51         -0.449345        1.000000        0.28203349        0.21860002        0.18149692        0.24793370        0.01121404        0.02306954        0.01362210        0.01409905        0.01792514
      52         -0.446873        1.000000        0.28675149        0.22237560        0.18624123        0.22799159        0.01269506        0.02100786        0.01618364        0.01251323        0.01534182
      53         -0.444203        1.000000        0.29028869        0.25678797        0.20028349        0.17753022        0.00827870        0.00942964        0.01877785        0.02140781        0.02165299
      54         -0.441569        1.000000        0.27377650        0.19830620        0.25857507        0.19197023        0.02265981        0.01259109        0.01806073        0.01005993        0.01482116
      55         -0.438853        1.000000        0.28017580        0.20653965        0.20775692        0.22763834        0.02168090        0.01272607        0.01552026        0.01806988        0.01031988
      56         -0.431897        1.000000        0.13831284        0.18705740        0.34538760        0.26156529        0.01589579        0.01367693        0.01298946        0.01249736        0.01527942
      57         -0.429847        1.000000        0.11495391        0.28411159        0.22157545        0.31289071        0.01143343        0.01521199        0.01713974        0.01281608        0.01204226
      58         -0.428267        1.000000        0.10298874        0.29682690        0.30236408        0.22965723        0.01443212        0.01143166        0.01355631        0.01344209        0.01545699
      59         -0.411083        1.000000        0.07624873        0.26406257        0.30455163        0.27399885        0.01923639        0.01865654        0.01865231        0.01758580        0.01793991
      60         -0.407765        1.000000        0.06384269        0.25847036        0.28034027        0.29788558        0.02368300        0.01680126        0.01809749        0.02245169        0.01843140
      61         -0.407200        1.000000        0.06690744        0.31930992        0.25678860        0.26184630        0.01553571        0.02315674        0.02037712        0.02177956        0.01887960
      62         -0.402694        1.000000        0.07218330        0.26326943        0.27312632        0.28645977        0.02117597        0.02122114        0.02057216        0.02011258        0.02188773
      63         -0.390149        1.000000        0.05099893        0.29486066        0.16533163        0.40710139        0.01960915        0.01580824        0.01767113        0.02047323        0.01801334
      64         -0.386771        1.000000        0.09066903        0.24971363        0.32802779        0.23657491        0.02222377        0.01592730        0.02133685        0.02040931        0.01662232
      65         -0.385794        1.000000        0.10737801        0.28294283        0.27988437        0.23185235        0.01876335        0.01909681        0.02103130        0.01511855        0.02545019
      66         -0.384110        1.000000        0.10765766        0.27075015        0.29827633        0.22285227        0.01635759        0.02542396        0.02154977        0.01878381        0.01892700
      67         -0.383295        1.000000        0.10218805        0.22776375        0.28392578        0.28538945        0.02253343        0.01639513        0.01687451        0.02220851        0.02213102
      68         -0.381724        1.000000        0.07162805        0.19156336        0.37479852        0.26192328        0.01507955        0.02241447        0.02437429        0.01701176        0.01741623
      69         -0.378893        1.000000        0.04217738        0.40896537        0.17000552        0.27764160        0.01983159        0.01920952        0.01550995        0.01629348        0.02169818
      70         -0.368648        1.000000        0.04002627        0.26493625        0.41785127        0.23350241        0.00976597        0.01071071        0.00854812        0.01042340        0.00961047
      71         -0.366628        1.000000        0.04812856        0.44163737        0.24616805        0.21390684        0.00964006        0.01223784        0.00835068        0.00968196        0.01357992
      72         -0.364555        1.000000        0.04429374        0.21002177        0.16251821        0.53466616        0.00830719        0.01060783        0.01145101        0.01026785        0.01044345
      73         -0.362174        1.000000        0.04307773        0.33908064        0.26146426        0.30231458        0.00990274        0.01029396        0.01080591        0.01022136        0.01284770
      74         -0.361627        1.000000        0.03944323        0.25580719        0.41262666        0.24030049        0.00947741        0.00955350        0.01245582        0.00886148        0.01207990
      75         -0.352573        1.000000        0.09691654        0.29072888        0.24004946        0.29204071        0.01631139        0.01105372        0.02627093        0.01004020        0.01736373
      76         -0.349010        1.000000        0.10041425        0.33843582        0.19772089        0.27980852        0.01699327        0.01827341        0.01196706        0.01932401        0.01755404
      77         -0.348080        1.000000        0.10230716        0.25817790        0.31817775        0.23723873        0.02159545        0.01960349        0.01145220        0.01909264        0.01286135
      78         -0.347442        1.000000        0.09256782        0.16219691        0.38100356        0.28163720        0.01179372        0.02321223        0.01186199        0.01515230        0.02066115
      79         -0.344480        1.000000        0.05168742        0.33529236        0.17256452        0.34569849        0.02554853        0.01480869        0.02001011        0.01464646        0.01971889
      80         -0.343694        1.000000        0.05969786        0.28182610        0.19858499        0.37221333        0.01407375        0.00940768        0.01884062        0.03224191        0.01765552
      81         -0.343037        1.000000        0.06771027        0.30735649        0.32913011        0.20483516        0.02059259        0.01730077        0.02518674        0.01440064        0.01517943
      82         -0.341718        1.000000        0.08597679        0.26381177        0.28112318        0.28268448        0.01756716        0.01834760        0.01496827        0.02024808        0.01563354
      83         -0.341214        1.000000        0.04467829        0.29867127        0.36363064        0.19656652        0.02240600        0.02175748        0.02181400        0.01464019        0.01671072
      84         -0.339845        1.000000        0.04827711        0.20511048        0.29812815        0.35328985        0.01954970        0.01652263        0.01662220        0.02637081        0.01697983
      85         -0.337934        1.000000        0.02943325        0.43222798        0.26747529        0.17052290        0.01669096        0.02371213        0.02280657        0.01242365        0.02495902
      86         -0.336034        1.000000        0.02434327        0.20523869        0.32212006        0.34461414        0.01760857        0.02177642        0.02351189        0.02056978        0.02024792
      87         -0.323723        1.000000        0.02299438        0.33819511        0.27267711        0.30919639        0.01314894        0.01254038        0.01388963        0.00865940        0.01091700
      88         -0.322883        1.000000        0.02330128        0.32466891        0.30356628        0.28856786        0.00966704        0.00836977        0.01303266        0.01479000        0.01436843
      89         -0.319577        1.000000        0.02478118        0.26667780        0.34945332        0.29668381        0.01725897        0.01071921        0.01249317        0.01334457        0.00982848
      90         -0.316857        1.000000        0.02459966        0.29237224        0.30188380        0.32099498        0.01109819        0.01341722        0.00968534        0.01578991        0.01108593
      91         -0.296812        1.000000        0.01134576        0.23455345        0.24289663        0.39249335        0.02668454        0.01804362        0.01851642        0.02799736        0.02819435
      92         -0.293119        1.000000        0.01210440        0.31776214        0.36473887        0.18514909        0.01784318        0.03365165        0.02998033        0.02153926        0.01796496
      93         -0.292278        1.000000        0.01233979        0.26663692        0.29583030        0.30681375        0.02783536        0.02095730        0.02594278        0.02429607        0.02388019
      94         -0.290041        1.000000        0.02032591        0.32412333        0.23588675        0.29461905        0.01532499        0.04408773        0.01867736        0.02402286        0.02325084
      95         -0.288294        1.000000        0.02108607        0.24287167        0.39093138        0.21937139        0.02165690        0.02127004        0.03315526        0.01510541        0.03555102
      96         -0.285601        1.000000        0.02051408        0.39544242        0.17466849        0.27880120        0.02438757        0.01622912        0.03093159        0.02789764        0.03123573
      97         -0.283839        1.000000        0.01927340        0.24512850        0.24289782        0.36695525        0.03447589        0.02293622        0.02064819        0.02738107        0.02040058
      98         -0.282981        1.000000        0.02111215        0.25238914        0.34503171        0.25074155        0.03546811        0.02217574        0.02378974        0.03149906        0.01842840
      99         -0.278257        1.000000        0.00795319        0.21913743        0.28916770        0.36950507        0.02199881        0.03094970        0.02396923        0.01798760        0.01942389
     100         -0.275276        1.000000        0.00812845        0.30050246        0.37623907        0.20301554        0.01710703        0.03634843        0.01876937        0.01665130        0.02506173
     101         -0.274090        1.000000        0.00932217        0.46787019        0.23308052        0.17360731        0.01838606        0.03138666        0.03401061        0.01878167        0.01491599
     102         -0.272424        1.000000        0.00966751        0.30353435        0.21351692        0.35356838        0.02561325        0.01407773        0.01738505        0.02507557        0.03764380
     103         -0.271911        1.000000        0.01111374        0.36344809        0.21718820        0.29079314        0.04050574        0.01905009        0.01999492        0.01757617        0.02334778
     104         -0.271241        1.000000        0.01020249        0.34789904        0.27469079        0.24787381        0.02684016        0.03311785        0.02182378        0.01687967        0.02076916
     105         -0.269876        1.000000        0.00788360        0.23256853        0.32419531        0.31849721        0.01143863        0.01925039        0.01494316        0.03798248        0.03337064
     106         -0.268939        1.000000        0.01128276        0.11048104        0.35752372        0.39878142        0.01507355        0.01112927        0.03003739        0.04489025        0.02094011
     107         -0.267203        1.000000        0.00867322        0.29597138        0.29684645        0.27888185        0.04321635        0.01342739        0.02785922        0.02249487        0.01264074
     108         -0.218864        1.000000        0.00752868        0.22645679        0.31748529        0.31212185        0.02290010        0.02837090        0.03472713        0.03353333        0.01687846
     109         -0.216918        1.000000        0.00802407        0.28254424        0.21778428        0.35168177        0.04061514        0.02460869        0.01997210        0.02197487        0.03231602
     110         -0.216556        1.000000        0.00766114        0.39820643        0.26485634        0.19287247        0.02719328        0.03905042        0.02466511        0.02517690        0.02036254
     111         -0.215769        1.000000        0.00776757        0.30947691        0.23237139        0.31138079        0.03794349        0.02098169        0.01568366        0.02309364        0.04142493
     112         -0.213619        1.000000        0.00779878        0.16072613        0.39156480        0.30126117        0.01786895        0.01916512        0.03866568        0.04304303        0.01934361
     113         -0.211290        1.000000        0.00783198        0.27580322        0.34523322        0.24019298        0.02157288        0.03509886        0.02899900        0.02430854        0.02125507
     114         -0.209319        1.000000        0.00795588        0.33475320        0.26262797        0.26425962        0.03401951        0.02444164        0.01699274        0.01895268        0.03618648
     115         -0.205528        1.000000        0.00773030        0.43068013        0.27917282        0.14635030        0.02140819        0.04552213        0.03594902        0.01346103        0.01984039
     116         -0.204479        1.000000        0.00794092        0.15065846        0.26512804        0.44189582        0.02184917        0.01142088        0.02467668        0.04312388        0.03381435
     117         -0.172562        1.000000        0.00716350        0.25954543        0.35879517        0.24793743        0.02336397        0.02664753        0.03280174        0.02876132        0.01516161
     118         -0.169966        1.000000        0.00741710        0.36365567        0.21503357        0.28639865        0.03287897        0.02491194        0.01603835        0.02080373        0.03295410
     119         -0.167465        1.000000        0.00762393        0.21253531        0.28734444        0.36113567        0.02552645        0.01751006        0.02595595        0.03640582        0.02526132
     120         -0.162688        1.000000        0.00736683        0.22677732        0.27626330        0.35926900        0.02466955        0.02307099        0.02257507        0.03104095        0.02910333
     121         -0.162061        1.000000        0.00755867        0.39750183        0.28909543        0.17460025        0.02464469        0.04035253        0.02853281        0.01158261        0.02548328
     122         -0.111943        1.000000        0.00532094        0.24304861        0.28772377        0.28450846        0.02997084        0.04389137        0.03388042        0.03264758        0.03878999
     123         -0.106868        0.000000        0.00488637        0.27658187        0.22549650        0.31125584        0.03669692        0.03085879        0.03283215        0.04308940        0.03970717
     124         -0.106037        0.000000        0.00535471        0.26814217        0.31195903        0.22921278        0.04136873        0.03340153        0.04522835        0.03506953        0.02918517
     125         -0.000000        0.000000        0.00000000        0.00000000        0.00000000        0.00000000        0.00000000        0.00000000        0.00000000        0.00000000        0.00000000
     126         -0.000000        0.000000        0.00000000        0.00000000        0.00000000        0.00000000        0.00000000        0.00000000        0.00000000        0.00000000        0.00000000
     127         -0.000000        0.000000        0.00000000        0.00000000        0.00000000        0.00000000        0.00000000        0.00000000        0.00000000        0.00000000        0.00000000
     128         -0.000000        0.000000        0.00000000        0.00000000        0.00000000        0.00000000        0.00000000        0.00000000        0.00000000        0.00000000        0.00000000
     129         -0.000000        0.000000        0.00000000        0.00000000        0.00000000        0.00000000        0.00000000        0.00000000        0.00000000        0.00000000        0.00000000
     130         -0.000000        0.000000        0.00000000        0.00000000        0.00000000        0.00000000        0.00000000        0.00000000        0.00000000        0.00000000        0.00000000
     131         -0.000000        0.000000        0.00000000        0.00000000        0.00000000        0.00000000        0.00000000        0.00000000        0.00000000        0.00000000        0.00000000
     132         -0.000000        0.000000        0.00000000        0.00000000        0.00000000        0.00000000        0.00000000        0.00000000        0.00000000        0.00000000        0.00000000
     133         -0.000000        0.000000        0.00000000        0.00000000        0.00000000        0.00000000        0.00000000        0.00000000        0.00000000        0.00000000        0.00000000
     134         -0.000000        0.000000        0.00000000        0.00000000        0.00000000        0.00000000        0.00000000        0.00000000        0.00000000        0.00000000        0.00000000
     135         -0.000000        0.000000        0.00000000        0.00000000        0.00000000        0.00000000        0.00000000        0.00000000        0.00000000        0.00000000        0.00000000
     136         -0.000000        0.000000        0.00000000        0.00000000        0.00000000        0.00000000        0.00000000        0.00000000        0.00000000        0.00000000        0.00000000
     137         -0.000000        0.000000        0.00000000        0.00000000        0.00000000        0.00000000        0.00000000        0.00000000        0.00000000        0.00000000        0.00000000
     138         -0.000000        0.000000        0.00000000        0.00000000        0.00000000        0.00000000        0.00000000        0.00000000        0.00000000        0.00000000        0.00000000
     139         -0.000000        0.000000        0.00000000        0.00000000        0.00000000        0.00000000        0.00000000        0.00000000        0.00000000        0.00000000        0.00000000
     140         -0.000000        0.000000        0.00000000        0.00000000        0.00000000        0.00000000        0.00000000        0.00000000        0.00000000        0.00000000        0.00000000
     141         -0.000000        0.000000        0.00000000        0.00000000        0.00000000        0.00000000        0.00000000        0.00000000        0.00000000        0.00000000        0.00000000
     142         -0.000000        0.000000        0.00000000        0.00000000        0.00000000        0.00000000        0.00000000        0.00000000        0.00000000        0.00000000        0.00000000
     143         -0.000000        0.000000        0.00000000        0.00000000        0.00000000        0.00000000        0.00000000        0.00000000        0.00000000        0.00000000        0.00000000
     144         -0.000000        0.000000        0.00000000        0.00000000        0.00000000        0.00000000        0.00000000        0.00000000        0.00000000        0.00000000        0.00000000