# Projected DOS for atomic kind C at iteration step i = 0, E(Fermi) =    -0.064543 a.u.
#     MO Eigenvalue [a.u.]      Occupation                 s                py                pz                px               d-2               d-1                d0               d+1               d+2
       1         -1.923729        1.000000        0.00587368        0.00242920        0.00368628        0.00397081        0.00035409        0.00034206        0.00033029        0.00035100        0.00038287
       2         -0.813482        1.000000        0.66477265        0.07394023        0.06080437        0.06584905        0.01553965        0.01360916        0.01752849        0.01867129        0.01557557
       3         -0.802661        1.000000        0.51694048        0.09476104        0.10060913        0.21950153        0.02317620        0.00607452        0.01037970        0.02037553        0.02264546
       4         -0.790329        1.000000        0.50901633        0.15143430        0.15345274        0.10079681        0.01338902        0.02281496        0.02026879        0.01344578        0.01359851
       5         -0.784948        1.000000        0.50228467        0.16675573        0.15346278        0.09364107        0.01329054        0.02183334        0.02104756        0.01328795        0.01332512
       6         -0.758362        1.000000        0.40005657        0.14843668        0.23366962        0.13121477        0.01705183        0.02851699        0.01168915        0.01930114        0.01667618
       7         -0.757045        1.000000        0.39533145        0.21988629        0.09311566        0.20204529        0.00717656        0.01728642        0.02066003        0.01626396        0.03224226
       8         -0.753924        1.000000        0.39154075        0.19154539        0.21200342        0.11083540        0.02285766        0.00731290        0.03474220        0.01156775        0.01793040
       9         -0.750447        1.000000        0.39277303        0.13505259        0.15792665        0.22054329        0.02623560        0.01614979        0.01954185        0.02111293        0.01082564
      10         -0.747981        1.000000        0.38859245        0.14998810        0.17996361        0.19047003        0.01801529        0.02296418        0.00832484        0.02599294        0.01611859
      11         -0.720914        1.000000        0.36503183        0.17727744        0.14418129        0.21746786        0.01317107        0.02679257        0.02273966        0.01518547        0.01919418
      12         -0.716505        1.000000        0.36200764        0.18684176        0.22461254        0.12869052        0.02079811        0.01741256        0.01770684        0.01866242        0.02442249
      13         -0.715498        1.000000        0.36163793        0.17444358        0.17863526        0.19072117        0.02497921        0.01340499        0.02007623        0.02481159        0.01428367
      14         -0.684822        1.000000        0.36038317        0.24359319        0.22044179        0.08284665        0.01716921        0.01280055        0.02003302        0.01997128        0.02406977
      15         -0.683024        1.000000        0.35953128        0.18067136        0.12348222        0.24272961        0.01624802        0.02149671        0.02520418        0.01337261        0.01732054
      16         -0.681214        1.000000        0.36079664        0.20545178        0.17144377        0.16880762        0.02328399        0.02280631        0.01293646        0.02299455        0.01209650
      17         -0.680087        1.000000        0.36198245        0.09573433        0.21164526        0.23562655        0.01896914        0.02031360        0.01575174        0.01885528        0.02111471
      18         -0.640416        1.000000        0.36293038        0.23905355        0.13649936        0.17426689        0.02194673        0.01538255        0.02301853        0.01457084        0.01235742
      19         -0.639684        1.000000        0.36447495        0.13408534        0.20762435        0.20618491        0.01097703        0.02283031        0.01101787        0.02146181        0.02150412
      20         -0.637901        1.000000        0.36335670        0.18290111        0.15246830        0.21353027        0.01437210        0.01464952        0.01919341        0.02481349        0.01515913
      21         -0.636880        1.000000        0.36344451        0.21466502        0.18172062        0.15180989        0.02079080        0.01619561        0.01823882        0.02042227        0.01288098
      22         -0.636133        1.000000        0.36568274        0.16728880        0.22151169        0.15750823        0.02027554        0.01326630        0.02129590        0.01139635        0.02177192
      23         -0.620897        1.000000        0.39267751        0.15321899        0.16160244        0.17565127        0.02236655        0.02994499        0.02160417        0.01748639        0.02542801
      24         -0.619274        1.000000        0.38974835        0.18743460        0.15163751        0.15446850        0.02964260        0.01464701        0.02067363        0.02273575        0.02921124
      25         -0.618237        1.000000        0.38874556        0.16444436        0.21128803        0.11886454        0.02660891        0.02333856        0.03406394        0.02292199        0.00987040
      26         -0.616449        1.000000        0.38835557        0.12680909        0.15149047        0.21603093        0.01645608        0.02990042        0.01263152        0.02752891        0.03070132
      27         -0.569970        1.000000        0.46320082        0.16019505        0.11752072        0.11177436        0.02280068        0.01528989        0.04350355        0.03642761        0.02958369
      28         -0.569271        1.000000        0.46716842        0.11764676        0.13775748        0.12577575        0.05838598        0.01739493        0.03345285        0.02685646        0.01561327
      29         -0.567030        1.000000        0.46118974        0.11419090        0.12564666        0.15063866        0.02593974        0.04043357        0.01587741        0.03898995        0.02820544
      30         -0.563978        1.000000        0.38408171        0.20500633        0.12183428        0.18580166        0.01300019        0.03706510        0.02134362        0.01616830        0.01572247
      31         -0.561676        1.000000        0.46354225        0.15027765        0.14384796        0.09047761        0.02625717        0.01819229        0.03706707        0.02658203        0.04415975
      32         -0.559905        1.000000        0.34142150        0.18055409        0.20158660        0.19656212        0.01498685        0.01988027        0.01170347        0.01525777        0.01812690
      33         -0.557740        1.000000        0.30192683        0.19982223        0.19654790        0.24548075        0.01022022        0.01457673        0.01126621        0.00995334        0.01047069
      34         -0.556244        1.000000        0.32654806        0.16127349        0.24505125        0.19500859        0.01148644        0.01692922        0.01078311        0.01062744        0.02234958
      35         -0.520951        1.000000        0.20988692        0.32009699        0.28451206        0.16143726        0.00405281        0.00729911        0.00616386        0.00523092        0.00650821
      36         -0.517971        1.000000        0.20306926        0.23327504        0.17597629        0.36147466        0.00536311        0.00496884        0.00480237        0.00548203        0.00592994
      37         -0.515424        1.000000        0.19430375        0.21388660        0.31568736        0.24872673        0.00662919        0.00461974        0.00603495        0.00635726        0.00385198
      38         -0.487708        1.000000        0.31793912        0.19944559        0.22837841        0.19534048        0.01732014        0.01131307        0.01534026        0.01567517        0.01547662
      39         -0.485284        1.000000        0.33677413        0.24432882        0.18513470        0.15816664        0.00926556        0.01751768        0.01632538        0.01594690        0.02078526
      40         -0.482956        1.000000        0.34404807        0.21644736        0.14833195        0.21040104        0.01667838        0.01902206        0.01769185        0.01274985        0.01477096
      41         -0.480733        1.000000        0.37911890        0.16124492        0.18466190        0.18145994        0.01829506        0.02263112        0.01508091        0.01944218        0.01817554
      42         -0.479721        1.000000        0.34856147        0.18216977        0.19828797        0.18880599        0.01649451        0.01417843        0.01939431        0.01420963        0.01951208
      43         -0.477588        1.000000        0.32488299        0.22522947        0.20404320        0.16856850        0.02042407        0.01081689        0.01465128        0.01915892        0.01291028
      44         -0.476526        1.000000        0.38007604        0.17169964        0.16191638        0.19016267        0.01583691        0.01860779        0.02416578        0.01584198        0.02171615
      45         -0.475566        1.000000        0.33333966        0.16986143        0.18038738        0.23460012        0.01672166        0.01941804        0.01501791        0.01770774        0.01299049
      46         -0.463880        1.000000        0.01638023        0.27664816        0.35336354        0.32009561        0.00688903        0.00764503        0.00721538        0.00833685        0.00921795
      47         -0.425485        1.000000        0.17294814        0.22658434        0.27242454        0.24017401        0.02835171        0.01262526        0.01783943        0.02429697        0.01625369
      48         -0.421107        1.000000        0.16932968        0.24293222        0.24641664        0.25268483        0.01238078        0.02445215        0.01333100        0.02153012        0.02429717
      49         -0.419990        1.000000        0.16783638        0.23946353        0.25100733        0.24606947        0.01895701        0.01954685        0.02585921        0.01663088        0.01550513
      50         -0.418044        1.000000        0.16740018        0.25329006        0.24279407        0.24050358        0.01923957        0.02028757        0.02020073        0.01593849        0.02096112
      51         -0.398867        1.000000        0.28772451        0.25036254        0.18559138        0.20066800        0.00966628        0.01892562        0.01736371        0.01440220        0.01825683
      52         -0.397952        1.000000        0.28906672        0.18140998        0.19248810        0.26329658        0.01177307        0.02541898        0.01100543        0.01142287        0.01831799
      53         -0.396120        1.000000        0.28103085        0.26017214        0.18176520        0.20771163        0.00884632        0.00891148        0.02314252        0.02117103        0.01718472
      54         -0.393640        1.000000        0.28632944        0.20503858        0.25738695        0.17279254        0.02404343        0.01072016        0.01667412        0.01232817        0.01613781
      55         -0.390728        1.000000        0.28730440        0.20740647        0.21143614        0.21491478        0.02238454        0.01353158        0.01397866        0.01814574        0.01091885
      56         -0.383076        1.000000        0.12818386        0.20753048        0.32907574        0.26667190        0.01491800        0.01409281        0.01281549        0.01188687        0.01527774
      57         -0.381983        1.000000        0.11572735        0.25526398        0.23794075        0.32634959        0.01273556        0.01558598        0.01572181        0.01258488        0.01192834
      58         -0.380015        1.000000        0.10209005        0.30079860        0.29373274        0.23589998        0.01417736        0.01125219        0.01384931        0.01404891        0.01443103
      59         -0.365250        1.000000        0.07561854        0.26495011        0.29907985        0.28760678        0.01810423        0.01836954        0.01965114        0.01661575        0.01876233
      60         -0.359083        1.000000        0.06398188        0.25820656        0.28211710        0.29607101        0.02284191        0.01699281        0.01853030        0.02226265        0.01890765
      61         -0.358650        1.000000        0.06576569        0.31028902        0.26163531        0.26527815        0.01653849        0.02395035        0.02025046        0.02117299        0.01832951
      62         -0.354573        1.000000        0.07066954        0.26937065        0.27337898        0.28225095        0.02142763        0.02143709        0.02019693        0.01962097        0.02191282
      63         -0.338083        1.000000        0.09006112        0.25359405        0.32170724        0.23777183        0.02230084        0.01777820        0.02352959        0.01798316        0.01640112
      64         -0.336997        1.000000        0.07484022        0.22126714        0.23825142        0.36827948        0.01706035        0.01839020        0.02091118        0.01997606        0.01835250
      65         -0.336514        1.000000        0.10157828        0.25594005        0.26152214        0.28628178        0.01963398        0.02323240        0.01664803        0.02032091        0.02051612
      66         -0.336025        1.000000        0.09167864        0.32598534        0.26573940        0.22212590        0.02319660        0.01794560        0.01543138        0.01416438        0.02730239
      67         -0.334801        1.000000        0.08185174        0.24939063        0.32501347        0.24664617        0.01189271        0.02292507        0.02949370        0.01877141        0.01206392
      68         -0.334273        1.000000        0.07183946        0.21401521        0.32103534        0.29436352        0.02066521        0.01501518        0.01756613        0.01947190        0.02333708
      69         -0.332365        1.000000        0.05179793        0.40582481        0.16229577        0.27934237        0.01965122        0.01677776        0.01601926        0.01901639        0.02234164
      70         -0.320420        1.000000        0.04497748        0.37544616        0.35241864        0.18980081        0.01021998        0.01223574        0.00862978        0.01376198        0.01167128
      71         -0.318036        1.000000        0.04272526        0.22787295        0.36914040        0.31144596        0.00875170        0.01256326        0.00773486        0.00933170        0.01152790
      72         -0.315991        1.000000        0.04027313        0.27674579        0.15188548        0.48347985        0.00793559        0.00960943        0.01053181        0.01039195        0.01005404
      73         -0.313997        1.000000        0.03975735        0.20586861        0.40385663        0.29985412        0.01079586        0.00965253        0.01029270        0.00795362        0.01290977
      74         -0.313606        1.000000        0.04010349        0.39670232        0.27232442        0.23911959        0.00912196        0.00933762        0.01204817        0.01083351        0.01098771
      75         -0.305256        1.000000        0.09102111        0.31851472        0.23853954        0.27799867        0.01693263        0.01138641        0.02529631        0.01195016        0.01559718
      76         -0.301309        1.000000        0.10265076        0.26744876        0.23188304        0.31417432        0.01465569        0.01959724        0.00998085        0.02189021        0.01818945
      77         -0.300781        1.000000        0.09880892        0.28075888        0.30819888        0.23049764        0.02187364        0.01616941        0.01475279        0.01713193        0.01487670
      78         -0.299013        1.000000        0.09082398        0.17980042        0.33528758        0.31067137        0.01134977        0.02331518        0.01076254        0.01714324        0.02183034
      79         -0.297517        1.000000        0.07032333        0.31707567        0.22468549        0.30454896        0.01183621        0.01135773        0.02347741        0.02803795        0.01475631
      80         -0.296435        1.000000        0.05139776        0.29606027        0.20307135        0.35606481        0.02420652        0.01841134        0.02037909        0.01574246        0.01565696
      81         -0.295430        1.000000        0.06894449        0.30001081        0.28545724        0.25464626        0.02764296        0.01356221        0.01905849        0.01268309        0.01884709
      82         -0.293668        1.000000        0.06299651        0.31615411        0.26244577        0.26526003        0.01794567        0.01747060        0.01567221        0.02070716        0.02153451
      83         -0.293036        1.000000        0.05437161        0.32434371        0.33682168        0.19059081        0.01942671        0.02540103        0.02226852        0.01303074        0.01379314
      84         -0.291805        1.000000        0.05752406        0.19122239        0.31975233        0.33820302        0.01899259        0.01767121        0.01651606        0.02534054        0.01530995
      85         -0.290320        1.000000        0.03172258        0.45817348        0.19871245        0.21204718        0.02061615        0.02047495        0.01815893        0.01151132        0.02905745
      86         -0.289182        1.000000        0.02553334        0.16295181        0.40197177        0.30749142        0.01466461        0.02099387        0.02974517        0.01987490        0.01719974
      87         -0.275435        1.000000        0.02258684        0.33605500        0.26859663        0.31605916        0.01213467        0.01231449        0.01452354        0.00928243        0.01092591
      88         -0.274457        1.000000        0.02296557        0.32731482        0.30553338        0.28538413        0.01046808        0.00882219        0.01225608        0.01396286        0.01367003
      89         -0.271482        1.000000        0.02403671        0.27637892        0.33890269        0.29882307        0.01519684        0.01043215        0.01278560        0.01310546        0.01112705
      90         -0.269081        1.000000        0.02398701        0.29024771        0.30480057        0.32094323        0.01096678        0.01407492        0.00922175        0.01552794        0.01068696
      91         -0.248967        1.000000        0.01220850        0.15435121        0.32466871        0.39464384        0.01982823        0.01557524        0.02551828        0.03677180        0.02248908
      92         -0.245825        1.000000        0.01142378        0.29878118        0.33327090        0.24046552        0.02293848        0.02900329        0.02981361        0.02013694        0.01919574
      93         -0.245476        1.000000        0.01170146        0.37242694        0.24082676        0.25603522        0.03036913        0.02573007        0.01763720        0.01879513        0.02881994
      94         -0.241334        1.000000        0.02052507        0.33038677        0.24507915        0.27741382        0.01643442        0.04668404        0.02045461        0.02175877        0.02174047
      95         -0.239641        1.000000        0.02176386        0.24483386        0.37852291        0.22754468        0.02092523        0.02133117        0.03223333        0.01434449        0.03930051
      96         -0.237622        1.000000        0.02029408        0.40302473        0.16314181        0.28276249        0.02333155        0.01578960        0.03112953        0.02890859        0.03176940
      97         -0.235921        1.000000        0.02044019        0.17998420        0.25090706        0.42030011        0.02938768        0.02515951        0.01930918        0.03708748        0.01744264
      98         -0.234612        1.000000        0.02047364        0.29305203        0.35254008        0.20276949        0.04195381        0.01906177        0.02538263        0.02547032        0.01987268
      99         -0.229625        1.000000        0.00629039        0.21906798        0.28779080        0.37438784        0.02079486        0.03207115        0.02413140        0.01550663        0.02002646
     100         -0.227413        1.000000        0.00706895        0.30748295        0.35020265        0.22405285        0.01604337        0.03445204        0.02125150        0.01459652        0.02575796
     101         -0.225999        1.000000        0.00964758        0.42617962        0.25455527        0.19175966        0.02057324        0.03693230        0.02773621        0.01912949        0.01470943
     102         -0.225137        1.000000        0.01115156        0.36046071        0.15569066        0.35384370        0.03663018        0.01694294        0.01230633        0.01679637        0.03879540
     103         -0.224066        1.000000        0.00870610        0.37560315        0.26268805        0.23659451        0.01765049        0.02420816        0.02789588        0.01956803        0.02835477
     104         -0.223886        1.000000        0.00939747        0.33750042        0.31524714        0.21879884        0.03602585        0.02090589        0.02194603        0.02072345        0.01987233
     105         -0.222886        1.000000        0.00728200        0.21635953        0.31373234        0.34719304        0.01173809        0.01912095        0.01338277        0.04107635        0.03021268
     106         -0.221728        1.000000        0.01073383        0.10470089        0.35305177        0.40995272        0.01488537        0.01126813        0.03314538        0.04493437        0.01763965
     107         -0.219616        1.000000        0.00789121        0.30153151        0.30481608        0.26733419        0.04465219        0.01358751        0.02648401        0.02168214        0.01220572
     108         -0.170538        1.000000        0.00771819        0.23361766        0.30240733        0.31970679        0.02366795        0.02853220        0.03181488        0.03344125        0.02005689
     109         -0.169362        1.000000        0.00792816        0.27339562        0.24763511        0.33141626        0.03518983        0.02994077        0.01917319        0.02762697        0.02783029
     110         -0.168908        1.000000        0.00772910        0.41745930        0.23904626        0.19910534        0.02998861        0.03502100        0.02128184        0.02565616        0.02479542
     111         -0.168364        1.000000        0.00791972        0.29599999        0.21174453        0.34504045        0.04139915        0.01646871        0.02119185        0.01886384        0.04140550
     112         -0.165970        1.000000        0.00781045        0.17578882        0.37787492        0.29971698        0.02127186        0.02154602        0.03540304        0.04049419        0.01977251
     113         -0.163658        1.000000        0.00797090        0.27244049        0.36509978        0.22351780        0.01849964        0.03653013        0.03263783        0.02400888        0.01948529
     114         -0.162723        1.000000        0.00811123        0.32980634        0.26371052        0.26829855        0.03386274        0.02415478        0.01661643        0.01991803        0.03606519
     115         -0.159322        1.000000        0.00779020        0.42413594        0.28603533        0.14759416        0.02085825        0.04498518        0.03572137        0.01290363        0.02059439
     116         -0.157920        1.000000        0.00797648        0.14787514        0.28247205        0.42816885        0.02022648        0.01180072        0.02667671        0.04357962        0.03196366
     117         -0.124550        1.000000        0.00739874        0.30688433        0.31227284        0.24692428        0.02670109        0.02655216        0.02662204        0.02549966        0.02117366
     118         -0.122462        1.000000        0.00763132        0.31618558        0.25447782        0.29401748        0.03007621        0.02413293        0.02176389        0.02418358        0.02763082
     119         -0.120271        1.000000        0.00776012        0.21175221        0.29117130        0.35847719        0.02525458        0.01811849        0.02595519        0.03594024        0.02503988
     120         -0.116208        1.000000        0.00750643        0.22445560        0.26847754        0.36922458        0.02562516        0.02140588        0.02144925        0.03173529        0.03020158
     121         -0.115360        1.000000        0.00777714        0.39694500        0.30409902        0.16011733        0.02300815        0.04205049        0.03027031        0.01122302        0.02386478
     122         -0.064543        1.000000        0.00520322        0.24171755        0.28526344        0.28749362        0.03026127        0.04376104        0.03380027        0.03326107        0.03901951
     123         -0.059420        0.000000        0.00465573        0.28138680        0.22880731        0.30183828        0.03583487        0.03177376        0.03274343        0.04306666        0.03980488
     124         -0.058253        0.000000        0.00522859        0.26497022        0.31023071        0.23382295        0.04228462        0.03317283        0.04560079        0.03444429        0.02923541
     125         -0.000000        0.000000        0.00000000        0.00000000        0.00000000        0.00000000        0.00000000        0.00000000        0.00000000        0.00000000        0.00000000
     126         -0.000000        0.000000        0.00000000        0.00000000        0.00000000        0.00000000        0.00000000        0.00000000        0.00000000        0.00000000        0.00000000
     127         -0.000000        0.000000        0.00000000        0.00000000        0.00000000        0.00000000        0.00000000        0.00000000        0.00000000        0.00000000        0.00000000
     128         -0.000000        0.000000        0.00000000        0.00000000        0.00000000        0.00000000        0.00000000        0.00000000        0.00000000        0.00000000        0.00000000
     129         -0.000000        0.000000        0.00000000        0.00000000        0.00000000        0.00000000        0.00000000        0.00000000        0.00000000        0.00000000        0.00000000
     130         -0.000000        0.000000        0.00000000        0.00000000        0.00000000        0.00000000        0.00000000        0.00000000        0.00000000        0.00000000        0.00000000
     131         -0.000000        0.000000        0.00000000        0.00000000        0.00000000        0.00000000        0.00000000        0.00000000        0.00000000        0.00000000        0.00000000
     132         -0.000000        0.000000        0.00000000        0.00000000        0.00000000        0.00000000        0.00000000        0.00000000        0.00000000        0.00000000        0.00000000
     133         -0.000000        0.000000        0.00000000        0.00000000        0.00000000        0.00000000        0.00000000        0.00000000        0.00000000        0.00000000        0.00000000
     134         -0.000000        0.000000        0.00000000        0.00000000        0.00000000        0.00000000        0.00000000        0.00000000        0.00000000        0.00000000        0.00000000
     135         -0.000000        0.000000        0.00000000        0.00000000        0.00000000        0.00000000        0.00000000        0.00000000        0.00000000        0.00000000        0.00000000
     136         -0.000000        0.000000        0.00000000        0.00000000        0.00000000        0.00000000        0.00000000        0.00000000        0.00000000        0.00000000        0.00000000
     137         -0.000000        0.000000        0.00000000        0.00000000        0.00000000        0.00000000        0.00000000        0.00000000        0.00000000        0.00000000        0.00000000
     138         -0.000000        0.000000        0.00000000        0.00000000        0.00000000        0.00000000        0.00000000        0.00000000        0.00000000        0.00000000        0.00000000
     139         -0.000000        0.000000        0.00000000        0.00000000        0.00000000        0.00000000        0.00000000        0.00000000        0.00000000        0.00000000        0.00000000
     140         -0.000000        0.000000        0.00000000        0.00000000        0.00000000        0.00000000        0.00000000        0.00000000        0.00000000        0.00000000        0.00000000
     141         -0.000000        0.000000        0.00000000        0.00000000        0.00000000        0.00000000        0.00000000        0.00000000        0.00000000        0.00000000        0.00000000
     142         -0.000000        0.000000        0.00000000        0.00000000        0.00000000        0.00000000        0.00000000        0.00000000        0.00000000        0.00000000        0.00000000
     143         -0.000000        0.000000        0.00000000        0.00000000        0.00000000        0.00000000        0.00000000        0.00000000        0.00000000        0.00000000        0.00000000
     144         -0.000000        0.000000        0.00000000        0.00000000        0.00000000        0.00000000        0.00000000        0.00000000        0.00000000        0.00000000        0.00000000