# Projected DOS for atomic kind C at iteration step i = 0, E(Fermi) =    -0.189541 a.u.
#     MO Eigenvalue [a.u.]      Occupation                 s                py                pz                px               d-2               d-1                d0               d+1               d+2
       1         -2.017164        1.000000        0.00730494        0.00218461        0.00218531        0.00218496        0.00018828        0.00018409        0.00018835        0.00018750        0.00018551
       2         -0.884131        1.000000        0.67116177        0.05695633        0.05819286        0.05807010        0.01454597        0.01430602        0.01476348        0.01423174        0.01475666
       3         -0.867481        1.000000        0.50332926        0.14895607        0.13388198        0.12957851        0.01747378        0.01773583        0.01579775        0.01401992        0.01707593
       4         -0.864407        1.000000        0.50212069        0.10270099        0.13212107        0.17828896        0.01745375        0.00894011        0.01570745        0.02271099        0.01768525
       5         -0.863966        1.000000        0.50210547        0.15972118        0.14792311        0.10557442        0.01438546        0.02196958        0.01878303        0.01225687        0.01501026
       6         -0.831150        1.000000        0.39163480        0.18731218        0.15558071        0.17166324        0.02673106        0.02095994        0.01555797        0.02115094        0.00923509
       7         -0.830722        1.000000        0.39034380        0.13257532        0.18755118        0.19591688        0.01447465        0.02435620        0.02235029        0.00882352        0.02359934
       8         -0.830015        1.000000        0.39062800        0.22838611        0.16569903        0.12120489        0.01295716        0.00548156        0.02518100        0.02268360        0.02777665
       9         -0.827870        1.000000        0.38975307        0.13798929        0.18411583        0.19509144        0.02581704        0.01547602        0.02083351        0.02009729        0.01082586
      10         -0.827727        1.000000        0.38935369        0.17301027        0.16784849        0.17687687        0.01335717        0.02616440        0.01049561        0.02077182        0.02211793
      11         -0.794807        1.000000        0.36348897        0.18914644        0.15723619        0.19116517        0.01474286        0.02728836        0.01843020        0.01817818        0.02031899
      12         -0.792802        1.000000        0.36260121        0.16244515        0.21112188        0.16517309        0.02014752        0.01688584        0.02010415        0.01593194        0.02558703
      13         -0.790939        1.000000        0.36126055        0.18864693        0.17093011        0.18187977        0.02510183        0.01328777        0.02125120        0.02547729        0.01216319
      14         -0.760975        1.000000        0.36036310        0.22585077        0.21539450        0.10460329        0.02184974        0.01894212        0.01865668        0.01603469        0.01830207
      15         -0.760459        1.000000        0.36013644        0.23210384        0.09310197        0.22051246        0.01323888        0.01785828        0.02464572        0.01983357        0.01856704
      16         -0.760037        1.000000        0.35997449        0.08851614        0.21229902        0.24518168        0.01676913        0.01951016        0.01693255        0.01808414        0.02273222
      17         -0.759510        1.000000        0.36061004        0.17936756        0.20625074        0.15981973        0.02287760        0.01881918        0.01476292        0.02144391        0.01604794
      18         -0.715056        1.000000        0.36228460        0.22600901        0.16104175        0.16366120        0.01707286        0.02193668        0.01977288        0.01122208        0.01699681
      19         -0.714542        1.000000        0.36355120        0.14681896        0.13915255        0.26279805        0.01353371        0.01407557        0.02133562        0.01854644        0.02018718
      20         -0.714235        1.000000        0.36386554        0.17562987        0.21175599        0.16042278        0.02420352        0.02087004        0.00832438        0.01998954        0.01493806
      21         -0.713822        1.000000        0.36330968        0.17775606        0.21902432        0.15179766        0.01286943        0.01295595        0.01955627        0.02222673        0.02050380
      22         -0.713518        1.000000        0.36347692        0.19534576        0.18126377        0.17158600        0.02349689        0.01376529        0.02028480        0.01870760        0.01207286
      23         -0.696704        1.000000        0.39231423        0.19280624        0.13491961        0.16255016        0.03338478        0.01060277        0.02254703        0.02592816        0.02494693
      24         -0.696492        1.000000        0.39319893        0.17125721        0.16075475        0.15746147        0.01903440        0.02738699        0.02237193        0.02028185        0.02825134
      25         -0.696316        1.000000        0.39205889        0.13688186        0.19935695        0.15461202        0.02464321        0.02536056        0.02802475        0.02319140        0.01587033
      26         -0.695626        1.000000        0.39205631        0.14464705        0.16100536        0.18507134        0.01485864        0.03249258        0.02029121        0.02268972        0.02688729
      27         -0.645329        1.000000        0.46905219        0.11199151        0.14751881        0.11966185        0.06732654        0.01619370        0.03511343        0.02113544        0.01200569
      28         -0.644436        1.000000        0.46945586        0.15057481        0.11170464        0.11619819        0.01469023        0.01950728        0.02429980        0.06180753        0.03176153
      29         -0.643654        1.000000        0.46749507        0.11891600        0.11633996        0.14602987        0.02364777        0.04055782        0.03503531        0.02228738        0.02969060
      30         -0.640150        1.000000        0.46580784        0.14873947        0.13022594        0.10337144        0.02587020        0.01631123        0.04003006        0.02681914        0.04282449
      31         -0.639007        1.000000        0.45681836        0.13611821        0.11188564        0.14807313        0.01922477        0.05790897        0.01937391        0.01875291        0.03184317
      32         -0.635777        1.000000        0.29958289        0.19910483        0.23260331        0.21448455        0.01068892        0.01107949        0.00863411        0.01044359        0.01335760
      33         -0.633931        1.000000        0.29236426        0.20853053        0.20945784        0.23897120        0.01041700        0.01056521        0.01025315        0.01016519        0.00925485
      34         -0.633612        1.000000        0.29161664        0.21735309        0.23392264        0.20613306        0.01034059        0.00908608        0.00980177        0.01031536        0.01141091
      35         -0.595294        1.000000        0.20423705        0.27058302        0.30283548        0.19580784        0.00392514        0.00696891        0.00509164        0.00475763        0.00579288
      36         -0.594473        1.000000        0.20189623        0.27597585        0.17258227        0.32328056        0.00538335        0.00452164        0.00533524        0.00490209        0.00612255
      37         -0.593597        1.000000        0.19627682        0.22417969        0.29830376        0.25524647        0.00645506        0.00416976        0.00544080        0.00636991        0.00355756
      38         -0.560225        1.000000        0.30933349        0.17846220        0.24160795        0.20217729        0.01389774        0.01153453        0.01338668        0.01345450        0.01614538
      39         -0.558787        1.000000        0.30795783        0.24704993        0.16559859        0.21147835        0.01313929        0.01541238        0.01490783        0.01326924        0.01118594
      40         -0.556799        1.000000        0.31284161        0.20635697        0.23279746        0.17634355        0.01691175        0.01476055        0.01243862        0.01186333        0.01568591
      41         -0.556706        1.000000        0.34233858        0.22184278        0.19243693        0.16308345        0.01248660        0.01819032        0.01593838        0.01496448        0.01871839
      42         -0.555804        1.000000        0.35347034        0.17521589        0.17048714        0.21510119        0.02272493        0.00642118        0.02051962        0.02096359        0.01509599
      43         -0.555609        1.000000        0.39541583        0.16521612        0.16900258        0.17126210        0.01888838        0.02260992        0.01891801        0.02063573        0.01805108
      44         -0.555198        1.000000        0.34481020        0.16319843        0.18797984        0.22153359        0.01145254        0.02411869        0.01553765        0.01403124        0.01733750
      45         -0.552014        1.000000        0.41247813        0.16456222        0.15801307        0.15844750        0.02240541        0.01959157        0.02129498        0.02269367        0.02051341
      46         -0.537799        1.000000        0.00301481        0.31565946        0.32289255        0.32105962        0.00685103        0.00793626        0.00707630        0.00712193        0.00788189
      47         -0.497094        1.000000        0.16706415        0.24263553        0.24565861        0.24608005        0.02636568        0.01326279        0.01862148        0.02676645        0.01354521
      48         -0.495850        1.000000        0.16617125        0.24796422        0.24893248        0.23956903        0.01845714        0.01693540        0.02529331        0.01613696        0.02054006
      49         -0.495101        1.000000        0.16640963        0.24246726        0.24433030        0.25015885        0.01753282        0.02326757        0.01770164        0.01744115        0.02069072
      50         -0.494738        1.000000        0.16592558        0.24573467        0.24367196        0.24774837        0.01596203        0.02348618        0.01670973        0.01770398        0.02305720
      51         -0.472465        1.000000        0.29957328        0.20530933        0.20959188        0.20642676        0.01067796        0.02170075        0.01285218        0.01132439        0.02254313
      52         -0.472020        1.000000        0.29862067        0.21850427        0.19146456        0.21232053        0.01159611        0.02053226        0.01958572        0.01048926        0.01688650
      53         -0.469576        1.000000        0.29962366        0.20286655        0.22369127        0.19307710        0.01958655        0.01289110        0.01462248        0.01911248        0.01452844
      54         -0.468751        1.000000        0.29815831        0.19266303        0.19503030        0.23425842        0.01917106        0.01521864        0.01408060        0.01916067        0.01225882
      55         -0.467789        1.000000        0.29601558        0.23318166        0.20464256        0.18644775        0.01921523        0.00834576        0.01896538        0.02041182        0.01277323
      56         -0.460199        1.000000        0.10279578        0.24315819        0.30866029        0.28047881        0.01307687        0.01419720        0.01200378        0.01139474        0.01421800
      57         -0.457367        1.000000        0.09801274        0.25553461        0.26781081        0.31300790        0.01301637        0.01413376        0.01411995        0.01212344        0.01221440
      58         -0.456906        1.000000        0.09895327        0.32200611        0.27447048        0.23835793        0.01321202        0.01103291        0.01338157        0.01521143        0.01334206
      59         -0.435467        1.000000        0.06194568        0.27434192        0.27547185        0.28880594        0.02205565        0.01789274        0.01872386        0.02059108        0.02016707
      60         -0.434857        1.000000        0.06351318        0.28213097        0.28059230        0.27373167        0.01845399        0.02159123        0.02137312        0.02030456        0.01828787
      61         -0.432927        1.000000        0.06838849        0.27069258        0.27481502        0.28307603        0.02057548        0.02031304        0.02066511        0.02003848        0.02141341
      62         -0.432185        1.000000        0.07636529        0.27777679        0.27423287        0.27421859        0.01762882        0.01789833        0.01936766        0.01784844        0.01953115
      63         -0.412081        1.000000        0.09850668        0.35259285        0.23801092        0.21035280        0.01959309        0.01917105        0.02802559        0.01775779        0.01467934
      64         -0.411554        1.000000        0.08213879        0.27642643        0.30176350        0.24016807        0.02121171        0.01698732        0.01611002        0.01531872        0.02701730
      65         -0.411465        1.000000        0.11018256        0.22377898        0.25675668        0.30837468        0.01788779        0.02179976        0.02130073        0.01663197        0.02327290
      66         -0.411102        1.000000        0.08251610        0.27712167        0.25493526        0.28600292        0.01884536        0.01811827        0.01919585        0.02204966        0.01843714
      67         -0.410557        1.000000        0.10984161        0.26264746        0.27548198        0.24994197        0.01957135        0.02289995        0.01659092        0.02588896        0.01698812
      68         -0.408361        1.000000        0.04022630        0.15695076        0.25357222        0.45252405        0.01771239        0.01521970        0.01780485        0.01839740        0.02039436
      69         -0.407879        1.000000        0.04053165        0.36614683        0.33184784        0.16470004        0.01647629        0.02063581        0.01782323        0.01589311        0.01876199
      70         -0.393467        1.000000        0.03786737        0.21507008        0.41400270        0.28699949        0.00886940        0.01070062        0.00778641        0.00907049        0.00963222
      71         -0.393050        1.000000        0.03841115        0.37946224        0.22664061        0.30948335        0.00856105        0.00943786        0.00933127        0.00881612        0.00985210
      72         -0.391743        1.000000        0.03684461        0.31173947        0.24104600        0.36346520        0.00996620        0.00935571        0.00967688        0.00949975        0.00840572
      73         -0.390564        1.000000        0.03649454        0.40322871        0.20780873        0.30394803        0.00864222        0.00981990        0.01049761        0.01000161        0.00955849
      74         -0.389978        1.000000        0.03570868        0.22569107        0.42756442        0.26292491        0.01034686        0.00796608        0.00970627        0.00902053        0.01107041
      75         -0.378966        1.000000        0.10520787        0.27394721        0.27398221        0.26285534        0.01194541        0.01726025        0.01593670        0.01708595        0.02177882
      76         -0.378773        1.000000        0.10575129        0.21927875        0.28046215        0.31016289        0.02222974        0.01876965        0.01852119        0.01252145        0.01230280
      77         -0.377741        1.000000        0.10676075        0.31495113        0.25395494        0.23916350        0.02194384        0.01690676        0.01694411        0.01665820        0.01271581
      78         -0.376804        1.000000        0.10566071        0.26144815        0.28884334        0.25888840        0.01181098        0.01430710        0.01639903        0.02043999        0.02220210
      79         -0.371908        1.000000        0.10007062        0.28273207        0.25826655        0.27606309        0.01128426        0.01945583        0.01862272        0.01349137        0.02001330
      80         -0.370414        1.000000        0.02263558        0.28656530        0.24917089        0.34054511        0.02450552        0.01884281        0.01578414        0.02216072        0.01977388
      81         -0.369567        1.000000        0.08896558        0.26892066        0.27284256        0.28255417        0.02182032        0.01698399        0.01333373        0.02142584        0.01315282
      82         -0.368985        1.000000        0.08304431        0.29764610        0.28971453        0.24124336        0.02181228        0.01207065        0.01956999        0.01660841        0.01828952
      83         -0.368191        1.000000        0.03638999        0.35857223        0.28270729        0.22300310        0.01770537        0.02694926        0.02134659        0.01890171        0.01442254
      84         -0.367315        1.000000        0.03180650        0.21402727        0.33878283        0.31509272        0.01830353        0.02151730        0.01910841        0.02461687        0.01674322
      85         -0.365186        1.000000        0.02348602        0.35854302        0.34574532        0.16982036        0.01587347        0.02163318        0.02745330        0.01589637        0.02154850
      86         -0.364194        1.000000        0.02294241        0.20735031        0.23318255        0.43277239        0.01991793        0.01435981        0.02004468        0.02046271        0.02896445
      87         -0.351330        1.000000        0.02209093        0.32531285        0.31644670        0.27854892        0.01107511        0.01060649        0.01137872        0.01174132        0.01279874
      88         -0.350701        1.000000        0.02168691        0.32278129        0.27845554        0.31962900        0.01218845        0.01230116        0.01376276        0.00912057        0.01007403
      89         -0.349042        1.000000        0.02321411        0.28654423        0.31855650        0.31251940        0.00995790        0.01087171        0.01152405        0.01335882        0.01345290
      90         -0.347916        1.000000        0.02390267        0.29669060        0.31616300        0.30196849        0.01484177        0.01139017        0.01117698        0.01380078        0.01006505
      91         -0.321872        1.000000        0.01125460        0.33047878        0.26918801        0.26842573        0.02420508        0.02984484        0.02021288        0.01920223        0.02717683
      92         -0.318902        1.000000        0.01147833        0.24856312        0.30617129        0.31308622        0.02241071        0.02208597        0.02564297        0.02750185        0.02305304
      93         -0.317335        1.000000        0.01135989        0.27854496        0.29539977        0.29194264        0.02639424        0.02124463        0.02580087        0.02754314        0.02176780
      94         -0.315536        1.000000        0.02076651        0.32305845        0.29448751        0.23147485        0.01843459        0.04185767        0.02855237        0.01756494        0.02380234
      95         -0.315170        1.000000        0.02099006        0.24846667        0.27620153        0.32467222        0.01499662        0.02878265        0.02170246        0.01858943        0.04559800
      96         -0.312821        1.000000        0.02144013        0.22968564        0.23113038        0.38488695        0.04144219        0.02200773        0.02858705        0.02317860        0.01764113
      97         -0.312601        1.000000        0.02115935        0.36205807        0.27487022        0.20848542        0.02063303        0.01731295        0.02918380        0.04053819        0.02575868
      98         -0.311818        1.000000        0.02161167        0.25957256        0.32315054        0.26194530        0.03822122        0.01942789        0.02434206        0.03316330        0.01856215
      99         -0.305173        1.000000        0.00421244        0.26013057        0.25024510        0.37457966        0.01648228        0.03251147        0.02129037        0.01472746        0.02582039
     100         -0.303557        1.000000        0.00420514        0.23708689        0.41322303        0.23507323        0.01509313        0.02802918        0.02401038        0.01459595        0.02868285
     101         -0.303112        1.000000        0.00474608        0.45247051        0.21680810        0.21431656        0.02208783        0.02504963        0.02369621        0.01827022        0.02255473
     102         -0.301245        1.000000        0.00502147        0.17989193        0.26997815        0.43268396        0.01770065        0.02412643        0.01391057        0.03373095        0.02295519
     103         -0.299678        1.000000        0.00655265        0.38459597        0.24874370        0.24444383        0.02388880        0.01651578        0.02903142        0.03022323        0.01600286
     104         -0.299232        1.000000        0.00900745        0.27518234        0.39420467        0.20149022        0.04390607        0.01989616        0.01935795        0.01863473        0.01831733
     105         -0.298464        1.000000        0.01047546        0.32045829        0.27541804        0.27219527        0.02639758        0.02765187        0.02315452        0.02304057        0.02120151
     106         -0.297320        1.000000        0.01071679        0.32561998        0.29799372        0.24559303        0.01959399        0.02382522        0.03070272        0.02280798        0.02314337
     107         -0.297163        1.000000        0.01092554        0.19792171        0.26140143        0.40869466        0.02408715        0.01095653        0.02423462        0.03184765        0.02990425
     108         -0.243580        1.000000        0.00747890        0.31026450        0.27639922        0.26789680        0.02872373        0.03086753        0.02954163        0.02723643        0.02158938
     109         -0.242547        1.000000        0.00744515        0.23769782        0.29398643        0.32229812        0.02719794        0.03113515        0.02484841        0.03401772        0.02136919
     110         -0.241837        1.000000        0.00741494        0.29847982        0.24765449        0.30790558        0.03861418        0.02038041        0.02294268        0.02333836        0.03326811
     111         -0.241264        1.000000        0.00730779        0.37729346        0.22448864        0.25209364        0.03041270        0.02811757        0.01967252        0.02546985        0.03514184
     112         -0.241220        1.000000        0.00730580        0.20769041        0.34616965        0.30089955        0.02691639        0.02191308        0.03282255        0.03521810        0.02105695
     113         -0.236905        1.000000        0.00761098        0.29648174        0.36768037        0.19637694        0.02043949        0.04177279        0.02645785        0.01891066        0.02426387
     114         -0.236141        1.000000        0.00764800        0.24963642        0.33138704        0.27721607        0.02008184        0.02319895        0.03387052        0.03152888        0.02542883
     115         -0.234662        1.000000        0.00764175        0.40886172        0.24259670        0.20941489        0.02532379        0.03883770        0.02693004        0.01371493        0.02665455
     116         -0.233011        1.000000        0.00757474        0.18563091        0.24111694        0.43311165        0.02654492        0.01075767        0.02489404        0.03594056        0.03442781
     117         -0.198243        1.000000        0.00707896        0.29953586        0.31151871        0.25490741        0.02713035        0.02489660        0.02718832        0.02597987        0.02176151
     118         -0.196145        1.000000        0.00690486        0.25052219        0.31719067        0.29810438        0.02195393        0.02370866        0.02983607        0.03235728        0.01941296
     119         -0.194514        1.000000        0.00684869        0.30700920        0.20611957        0.35162350        0.03606711        0.01896912        0.01498029        0.02443297        0.03394011
     120         -0.190812        1.000000        0.00694602        0.37944660        0.33614881        0.14831714        0.01829639        0.04378008        0.03317790        0.01192552        0.02194145
     121         -0.189541        1.000000        0.00696391        0.21226844        0.26816622        0.38237702        0.02529561        0.01949065        0.02123125        0.03364226        0.03056274
     122         -0.133771        0.000000        0.00514355        0.24007283        0.27964433        0.29337007        0.03107987        0.04320937        0.03362163        0.03360054        0.04002830
     123         -0.132774        0.000000        0.00466874        0.25955082        0.23909406        0.31316875        0.04064244        0.03055737        0.03759333        0.03803951        0.03651011
     124         -0.132565        0.000000        0.00464552        0.29957614        0.29440276        0.21798484        0.03661826        0.03566926        0.03860712        0.03840976        0.03398080
     125         -0.094724        0.000000        0.00309348        0.27187484        0.23668469        0.33146666        0.03215547        0.03160606        0.02385421        0.03113343        0.03806354
     126         -0.094070        0.000000        0.00302288        0.31802194        0.30857078        0.21311575        0.02613520        0.04281455        0.03400449        0.02362828        0.03053743
     127         -0.091515        0.000000        0.00655491        0.23686537        0.28930622        0.30227148        0.03544088        0.02031787        0.03537868        0.03974018        0.02627433
     128         -0.088864        0.000000        0.21280762        0.06209431        0.06240509        0.06330039        0.02510129        0.02351703        0.02514472        0.02495435        0.02421688
     129         -0.059341        0.000000        0.04725609        0.24741731        0.24308451        0.23115693        0.03841365        0.05709784        0.05070172        0.03728349        0.04747861
     130         -0.056881        0.000000        0.04551098        0.23999750        0.23956536        0.24339532        0.04892154        0.04433803        0.03917162        0.04768458        0.05137111
     131         -0.054378        0.000000        0.03643492        0.24453618        0.23468944        0.26572212        0.04693284        0.04096663        0.04470211        0.04428855        0.04161059
     132         -0.053426        0.000000        0.03481066        0.24832234        0.24463868        0.25720058        0.04144583        0.04352183        0.04341505        0.04670466        0.03990975
     133         -0.052113        0.000000        0.02602273        0.22194882        0.27987951        0.26806370        0.04290219        0.04136574        0.03716476        0.04286987        0.03966773
     134         -0.049773        0.000000        0.02483108        0.34657246        0.25103916        0.17711885        0.04259808        0.04886673        0.03294842        0.03485033        0.04113823
     135         -0.049198        0.000000        0.02466309        0.27802073        0.32764873        0.17019732        0.03405872        0.04959845        0.05141083        0.04040566        0.02398550
     136         -0.047338        0.000000        0.02475073        0.21493957        0.19740115        0.36305398        0.04613863        0.02187198        0.03615677        0.04594905        0.04968026
     137         -0.004035        0.000000        0.20486679        0.04031526        0.03748988        0.03788760        0.02411074        0.02388112        0.02246789        0.02117692        0.02575941
     138         -0.002607        0.000000        0.20704225        0.03157672        0.03499666        0.04412681        0.02631389        0.01695726        0.02152883        0.02800841        0.02388522
     139         -0.002551        0.000000        0.20665564        0.03940523        0.04052057        0.02887619        0.02079575        0.02761473        0.02706854        0.02107466        0.01976095
     140          0.000606        0.000000        0.02359769        0.23969469        0.29575821        0.28102692        0.02346123        0.03198135        0.03186951        0.03718036        0.03323200
     141          0.002313        0.000000        0.02415130        0.25669546        0.24284482        0.31650890        0.03706037        0.02795657        0.02683795        0.03464101        0.03143209
     142          0.002534        0.000000        0.02506876        0.29884747        0.25436932        0.25671440        0.03426603        0.03501044        0.03386364        0.01935040        0.03537429
     143          0.005083        0.000000        0.02191316        0.30152532        0.30056348        0.21773734        0.03102867        0.03834917        0.02880540        0.03592822        0.02391267
     144          0.007523        0.000000        0.02249008        0.26689222        0.26405228        0.28676149        0.03474219        0.02657358        0.03291850        0.03394300        0.03005393