# Projected DOS for atomic kind C at iteration step i = 0, E(Fermi) =    -0.159233 a.u.
#     MO Eigenvalue [a.u.]      Occupation                 s                py                pz                px               d-2               d-1                d0               d+1               d+2
       1         -1.994645        1.000000        0.00789544        0.00363503        0.00384518        0.00210403        0.00025002        0.00036733        0.00026452        0.00033114        0.00030534
       2         -0.881109        1.000000        0.61509269        0.13343328        0.09680224        0.08543344        0.01900309        0.02235994        0.02023106        0.01362862        0.01780760
       3         -0.861663        1.000000        0.53529595        0.11289387        0.17377379        0.11908624        0.00918896        0.01830466        0.02745919        0.02447417        0.01022914
       4         -0.846191        1.000000        0.55123961        0.16359976        0.10230482        0.08166552        0.02124283        0.01856116        0.01072469        0.00701022        0.02111603
       5         -0.832522        1.000000        0.49896622        0.09925159        0.12189032        0.19364057        0.02009158        0.00623892        0.01323224        0.02313617        0.02116150
       6         -0.820963        1.000000        0.40230000        0.15433846        0.19107136        0.18288920        0.01433483        0.02751151        0.01550735        0.01450138        0.02301838
       7         -0.806949        1.000000        0.39888709        0.17058385        0.15916673        0.18174566        0.01982288        0.01962576        0.01520880        0.02273399        0.01589732
       8         -0.802405        1.000000        0.39094986        0.20596632        0.20958730        0.09932867        0.02020113        0.00472312        0.03422543        0.01328229        0.02231348
       9         -0.798256        1.000000        0.39043891        0.15829947        0.15457560        0.20444087        0.01944972        0.01608677        0.01272863        0.02920234        0.01676459
      10         -0.797528        1.000000        0.38967903        0.17375889        0.16489100        0.17894633        0.02036812        0.02614635        0.01638283        0.01424924        0.01569429
      11         -0.769732        1.000000        0.36569850        0.14957598        0.15164307        0.23531441        0.01427731        0.02631285        0.02288523        0.01448114        0.02050797
      12         -0.768608        1.000000        0.36605581        0.18368273        0.23613631        0.11960802        0.02238439        0.01737908        0.01447267        0.02059701        0.02343340
      13         -0.761714        1.000000        0.36148379        0.17605523        0.17649621        0.19211388        0.02290037        0.01602808        0.01843582        0.02452751        0.01380033
      14         -0.739003        1.000000        0.36557241        0.22186930        0.12263257        0.20622452        0.02006388        0.02307529        0.02259067        0.01535867        0.01255415
      15         -0.734476        1.000000        0.36017828        0.21565946        0.19424361        0.13722615        0.01772576        0.01198968        0.02153429        0.01982376        0.02397324
      16         -0.730675        1.000000        0.36090562        0.18709228        0.20412999        0.15439108        0.02132848        0.01654067        0.01715449        0.02026642        0.01919800
      17         -0.728638        1.000000        0.35927308        0.11142632        0.19079127        0.24408927        0.01546240        0.02412468        0.01438895        0.01997929        0.02083300
      18         -0.690306        1.000000        0.36472870        0.21799434        0.14771830        0.18478479        0.02362287        0.01527919        0.02490930        0.01109840        0.01198963
      19         -0.688228        1.000000        0.36754994        0.12630027        0.22318529        0.19350549        0.01526494        0.02233220        0.01051132        0.02230711        0.01925975
      20         -0.686844        1.000000        0.36234632        0.17520166        0.12787697        0.24695255        0.01660387        0.01432941        0.02079845        0.01824019        0.01776843
      21         -0.684727        1.000000        0.36282008        0.17821041        0.22032020        0.14845942        0.02277306        0.01251961        0.02146838        0.01939164        0.01406079
      22         -0.683882        1.000000        0.36400982        0.23351017        0.18736252        0.12539998        0.01315383        0.01704232        0.01596035        0.02167291        0.02174415
      23         -0.669376        1.000000        0.39297176        0.17167008        0.15333963        0.16569895        0.01935028        0.03075451        0.02141732        0.01648930        0.02847030
      24         -0.666275        1.000000        0.38988277        0.17059048        0.16746089        0.15559539        0.02850986        0.01723449        0.02539065        0.02007285        0.02530452
      25         -0.665488        1.000000        0.38593437        0.16929236        0.19697837        0.13318726        0.02937994        0.01680299        0.02990477        0.02747712        0.01127085
      26         -0.664293        1.000000        0.38867390        0.12677797        0.15383322        0.21454416        0.01350256        0.03440795        0.01255251        0.02665074        0.02915547
      27         -0.620289        1.000000        0.46465720        0.11924893        0.14265271        0.12738532        0.05997024        0.01614332        0.04003845        0.01834946        0.01518318
      28         -0.617543        1.000000        0.46384260        0.15913525        0.11855146        0.10952963        0.01958503        0.01678111        0.03534680        0.04631647        0.03121052
      29         -0.614026        1.000000        0.46259095        0.11411822        0.12732432        0.14584465        0.02275143        0.04388692        0.01885922        0.03842242        0.02689214
      30         -0.612968        1.000000        0.39987094        0.19613776        0.11274404        0.18045960        0.01739337        0.04004345        0.02123334        0.01708234        0.01867574
      31         -0.608545        1.000000        0.35605446        0.18197245        0.18634382        0.18995044        0.01343570        0.01238016        0.02742449        0.00933542        0.02561993
      32         -0.607881        1.000000        0.37532712        0.16891782        0.18396304        0.17279475        0.02918164        0.01828088        0.01977688        0.01620983        0.01658545
      33         -0.606915        1.000000        0.35511894        0.15899716        0.21680777        0.18174937        0.01221931        0.02074439        0.01018139        0.02239321        0.02452892
      34         -0.604981        1.000000        0.32169548        0.20078411        0.22079326        0.19042722        0.00726577        0.01354171        0.01142258        0.01305338        0.02346451
      35         -0.571274        1.000000        0.20464456        0.38884402        0.15909928        0.23090067        0.00689646        0.00518837        0.00680367        0.00694857        0.00622905
      36         -0.566628        1.000000        0.20823020        0.20895463        0.32961470        0.22437145        0.00595778        0.00740095        0.00696578        0.00561258        0.00485011
      37         -0.564670        1.000000        0.19850691        0.17600512        0.28441649        0.31348737        0.00500785        0.00637026        0.00502566        0.00673704        0.00584711
      38         -0.542759        1.000000        0.30842624        0.27807320        0.20212324        0.16198899        0.01374322        0.00870556        0.01395386        0.02107398        0.01517136
      39         -0.531305        1.000000        0.37971044        0.18905952        0.15347291        0.18670486        0.01651024        0.02249761        0.01667898        0.01733311        0.02002234
      40         -0.530070        1.000000        0.33537370        0.18226636        0.14418925        0.26011472        0.01566615        0.01867593        0.01997925        0.01500566        0.01138269
      41         -0.528405        1.000000        0.37572316        0.18460204        0.17446540        0.17386434        0.01951044        0.01898479        0.01681270        0.01745089        0.02093887
      42         -0.527556        1.000000        0.33023446        0.23610983        0.19385132        0.16350435        0.01516191        0.01608166        0.02056643        0.00985282        0.01620908
      43         -0.525332        1.000000        0.34179064        0.17823643        0.20492746        0.19282389        0.01447614        0.01267126        0.01948184        0.01551812        0.02128219
      44         -0.525020        1.000000        0.37856542        0.17436225        0.18983353        0.16212139        0.02296226        0.01547880        0.01682559        0.02258435        0.01787848
      45         -0.521744        1.000000        0.30327937        0.18143963        0.19979572        0.24161931        0.01404308        0.01967240        0.01394880        0.01494546        0.01187564
      46         -0.511214        1.000000        0.02201363        0.27823052        0.35907331        0.30365492        0.00667383        0.00839674        0.00872135        0.00702164        0.01091247
      47         -0.484952        1.000000        0.17295440        0.20812485        0.29318175        0.26633550        0.02295303        0.01932200        0.01972601        0.02423818        0.01352019
      48         -0.469186        1.000000        0.16521193        0.24436657        0.25754613        0.23960513        0.02257899        0.01193076        0.02179507        0.01737097        0.02195152
      49         -0.467587        1.000000        0.16846889        0.23856102        0.24103251        0.25885408        0.01798410        0.02241265        0.01774101        0.01818901        0.01935690
      50         -0.465806        1.000000        0.16627056        0.25040196        0.23978077        0.24758435        0.01604710        0.02408253        0.01779015        0.01621482        0.02189046
      51         -0.456412        1.000000        0.23497330        0.21341819        0.21325177        0.31033268        0.01469004        0.02027037        0.01310993        0.02028341        0.01619625
      52         -0.447325        1.000000        0.28352307        0.26874052        0.19048184        0.18161196        0.01018086        0.01791062        0.01405646        0.01494272        0.02214476
      53         -0.445043        1.000000        0.29564570        0.21394699        0.21693108        0.19592831        0.01325742        0.01731595        0.02186268        0.00997367        0.01656820
      54         -0.441751        1.000000        0.26872237        0.21768071        0.25777798        0.17999621        0.02320761        0.01139700        0.01678998        0.01126681        0.01580397
      55         -0.438313        1.000000        0.28010218        0.20099401        0.20727080        0.23363994        0.02069381        0.01408234        0.01438437        0.01879829        0.01025597
      56         -0.431747        1.000000        0.18796102        0.18278332        0.32174821        0.23742132        0.01545336        0.01257266        0.01432640        0.01634792        0.01490546
      57         -0.431652        1.000000        0.11690913        0.30166445        0.21435842        0.30238260        0.01032978        0.01642668        0.01719964        0.01441071        0.01254532
      58         -0.428031        1.000000        0.10681277        0.26933836        0.31557900        0.24016563        0.01517968        0.01134899        0.01345101        0.01252667        0.01581113
      59         -0.412788        1.000000        0.07832871        0.30885280        0.26295287        0.27811787        0.01966289        0.01820025        0.01774184        0.01608276        0.02097142
      60         -0.407759        1.000000        0.06543388        0.26659848        0.28033835        0.28925906        0.02428591        0.01583422        0.01794797        0.02242876        0.01924029
      61         -0.405530        1.000000        0.06374978        0.29907029        0.26462942        0.27410173        0.01786086        0.02287733        0.01970851        0.02026370        0.01867180
      62         -0.402867        1.000000        0.07253248        0.25680940        0.28010319        0.28740670        0.01993815        0.02179348        0.02050855        0.02042402        0.02172007
      63         -0.392613        1.000000        0.06535530        0.34206783        0.20885072        0.29992048        0.01993650        0.01785294        0.01682249        0.01427564        0.02314228
      64         -0.390125        1.000000        0.05989605        0.20223116        0.44403441        0.21571423        0.01426993        0.02268518        0.02200521        0.02067400        0.01525205
      65         -0.386296        1.000000        0.10599744        0.33396119        0.25346829        0.20797896        0.01731986        0.01981924        0.02856477        0.01686720        0.01697158
      66         -0.384066        1.000000        0.10223146        0.18479648        0.30109681        0.31132052        0.02226388        0.01783999        0.02319686        0.01790642        0.01887857
      67         -0.383234        1.000000        0.10788304        0.32311877        0.22452439        0.24599829        0.01631091        0.01660454        0.01835354        0.02627642        0.02295703
      68         -0.382594        1.000000        0.09434753        0.27150842        0.29635100        0.23936674        0.01909268        0.02216320        0.01709695        0.02124971        0.01798826
      69         -0.378267        1.000000        0.04246467        0.27482116        0.18642322        0.40038818        0.01826982        0.01687260        0.01526659        0.01704019        0.02242461
      70         -0.367993        1.000000        0.04205351        0.25386326        0.42039348        0.23753185        0.00889747        0.01181789        0.00820376        0.00980102        0.00992185
      71         -0.365671        1.000000        0.04452263        0.38110055        0.18408899        0.33943207        0.00789723        0.01060529        0.01077721        0.00957419        0.01277205
      72         -0.363532        1.000000        0.04615124        0.31553218        0.21439708        0.37242504        0.01093989        0.01118159        0.01147522        0.01001501        0.00962907
      73         -0.361936        1.000000        0.04088301        0.37298222        0.22885940        0.30493873        0.01041835        0.00984823        0.01173621        0.01035688        0.01030091
      74         -0.360889        1.000000        0.04065820        0.20881799        0.45425650        0.24370820        0.01059189        0.00949222        0.01107962        0.00813236        0.01389450
      75         -0.352097        1.000000        0.09751069        0.27290979        0.25353093        0.29578781        0.01781899        0.01161570        0.02497466        0.00987108        0.01714379
      76         -0.348503        1.000000        0.10153812        0.38746197        0.16796881        0.25905537        0.01674018        0.01750713        0.01315914        0.02291316        0.01491603
      77         -0.347798        1.000000        0.10106858        0.20989162        0.31063846        0.29531008        0.01766606        0.01949579        0.01070816        0.02071584        0.01545337
      78         -0.347235        1.000000        0.08868809        0.16470249        0.44188941        0.22300910        0.01468274        0.02221149        0.01320448        0.01157025        0.02188222
      79         -0.345205        1.000000        0.07963574        0.31455629        0.19796025        0.32157170        0.02144502        0.01047389        0.02108520        0.01730037        0.01870140
      80         -0.343190        1.000000        0.04206558        0.34300435        0.25758939        0.26228982        0.02104081        0.01996378        0.01704257        0.02014397        0.01856525
      81         -0.342029        1.000000        0.08535281        0.30721881        0.25019644        0.27192198        0.01440163        0.01363683        0.02206392        0.02307033        0.01458885
      82         -0.341140        1.000000        0.06809187        0.23243573        0.33565206        0.27505185        0.02461152        0.01881888        0.01505741        0.01583851        0.01717372
      83         -0.339719        1.000000        0.05030054        0.26931417        0.27084329        0.31387663        0.01914335        0.02345074        0.01880850        0.02040466        0.01407098
      84         -0.339509        1.000000        0.04174278        0.24755278        0.32924981        0.28550514        0.01709078        0.02068672        0.02013909        0.02547567        0.01514310
      85         -0.336691        1.000000        0.02820469        0.37955621        0.28453141        0.20749550        0.01675280        0.02100543        0.02193316        0.01803654        0.02276709
      86         -0.333562        1.000000        0.02333930        0.23178751        0.27449229        0.36689251        0.01863159        0.01953063        0.02294066        0.01895818        0.02381591
      87         -0.322864        1.000000        0.02293309        0.33958102        0.31036990        0.26797764        0.01240162        0.00998395        0.01253729        0.01192980        0.01250555
      88         -0.322666        1.000000        0.02316183        0.32382392        0.27101340        0.32343819        0.01005436        0.01099384        0.01533741        0.01096552        0.01286065
      89         -0.319131        1.000000        0.02446801        0.26603800        0.35034060        0.29658619        0.01733612        0.01025965        0.01249613        0.01318270        0.01006156
      90         -0.316475        1.000000        0.02456695        0.29865140        0.30194926        0.31409323        0.01129223        0.01411878        0.00931527        0.01601688        0.01085020
      91         -0.296442        1.000000        0.01152122        0.28611396        0.24228778        0.33998428        0.02724961        0.02357853        0.01927220        0.02174628        0.02839068
      92         -0.291134        1.000000        0.01200371        0.29544206        0.33310278        0.23844843        0.01953192        0.02822734        0.02711685        0.02466284        0.02197548
      93         -0.289827        1.000000        0.01977504        0.29884329        0.28121471        0.27468238        0.01953087        0.04377866        0.02041283        0.02261303        0.02004959
      94         -0.288429        1.000000        0.01601644        0.25792716        0.29126616        0.31161242        0.01825028        0.02316540        0.02317807        0.02650935        0.03233496
      95         -0.287546        1.000000        0.01824199        0.26131119        0.37717243        0.22007907        0.02500702        0.01899425        0.03529438        0.02082848        0.02558004
      96         -0.285031        1.000000        0.01995952        0.39883810        0.16861792        0.28274202        0.02459066        0.01583786        0.02933874        0.02886510        0.03144711
      97         -0.283606        1.000000        0.01922174        0.27193039        0.25168597        0.33126126        0.03990772        0.02135845        0.02067603        0.02435150        0.02024182
      98         -0.282595        1.000000        0.02074608        0.22913810        0.33746508        0.28286468        0.03033467        0.02386627        0.02383667        0.03315109        0.01956554
      99         -0.278185        1.000000        0.00775753        0.22911369        0.28805219        0.36257353        0.02156890        0.03084533        0.02339321        0.01781027        0.02045146
     100         -0.274395        1.000000        0.00762408        0.31352094        0.34035538        0.22609638        0.01743339        0.02994056        0.02533926        0.01497165        0.02504089
     101         -0.273053        1.000000        0.00840529        0.44792293        0.21397420        0.21291686        0.02169376        0.02325937        0.02597174        0.02879896        0.01771737
     102         -0.271357        1.000000        0.01014765        0.24253857        0.25383916        0.37452200        0.02794835        0.02446397        0.01819461        0.02261074        0.02661557
     103         -0.269897        1.000000        0.01091623        0.31148177        0.20564701        0.35552466        0.03560152        0.02228667        0.01399555        0.01373192        0.03422996
     104         -0.269608        1.000000        0.01019616        0.36618980        0.29959343        0.20558790        0.01414865        0.03353962        0.02811258        0.01711930        0.02630014
     105         -0.268735        1.000000        0.00955570        0.28314946        0.34298040        0.24337285        0.01879664        0.02203330        0.02022920        0.03847817        0.02155328
     106         -0.266928        1.000000        0.00931498        0.23428456        0.33614408        0.30002739        0.04513295        0.01440240        0.02218141        0.02313798        0.01566054
     107         -0.266621        1.000000        0.00995164        0.19821482        0.29127180        0.37901830        0.01658498        0.01101116        0.03203017        0.04137201        0.02106427
     108         -0.218143        1.000000        0.00760525        0.25187871        0.32959139        0.27513087        0.02131386        0.02947927        0.03787732        0.03155707        0.01616873
     109         -0.215757        1.000000        0.00767207        0.44880822        0.19332513        0.21624193        0.03386157        0.03129168        0.01515181        0.02330131        0.03056002
     110         -0.214972        1.000000        0.00773030        0.23802302        0.28399118        0.33065274        0.03493729        0.03111452        0.02760769        0.02444848        0.02164534
     111         -0.213541        1.000000        0.00778954        0.29556228        0.25979873        0.29812093        0.03544348        0.02473627        0.01780097        0.02414226        0.03699263
     112         -0.212422        1.000000        0.00759270        0.20847188        0.31051056        0.33484711        0.02840518        0.01288515        0.03205260        0.03855706        0.02667585
     113         -0.209306        1.000000        0.00797014        0.25711459        0.32177097        0.28221029        0.02621898        0.02710187        0.02811287        0.02635149        0.02321751
     114         -0.206626        1.000000        0.00792741        0.29301942        0.33031500        0.23790254        0.02343200        0.03154934        0.02223057        0.02390357        0.03018932
     115         -0.202740        1.000000        0.00799581        0.40123438        0.23817619        0.21617132        0.02413387        0.04119968        0.02590944        0.01849566        0.02670342
     116         -0.201355        1.000000        0.00800424        0.18230403        0.30309049        0.36904540        0.01901323        0.01763876        0.03498141        0.03811085        0.02822634
     117         -0.170884        1.000000        0.00731697        0.23530999        0.38371269        0.24627123        0.02169743        0.02704347        0.03637534        0.03044822        0.01201559
     118         -0.168733        1.000000        0.00743448        0.37995441        0.21525532        0.26969630        0.03241251        0.02631995        0.01549926        0.01980435        0.03369659
     119         -0.166453        1.000000        0.00735566        0.22898410        0.25843362        0.37423147        0.03019732        0.01566198        0.02224961        0.03484194        0.02808024
     120         -0.159577        1.000000        0.00751432        0.22497028        0.27415195        0.36253843        0.02466751        0.02315154        0.02240590        0.03151303        0.02959632
     121         -0.159233        1.000000        0.00730377        0.38265960        0.29796749        0.18133782        0.02312754        0.04040180        0.02939192        0.01216661        0.02563061
     122         -0.106457        0.000000        0.00591271        0.22589969        0.31040487        0.27730442        0.02898976        0.04548346        0.03455209        0.03298859        0.03846382
     123         -0.105571        0.000000        0.00540220        0.26244045        0.23425806        0.31651690        0.04166957        0.02952071        0.03852110        0.03783665        0.03655619
     124         -0.104694        0.000000        0.00512650        0.29888915        0.27973998        0.23078174        0.03641866        0.03462505        0.03695426        0.04108090        0.03403199
     125         -0.000000        0.000000        0.00000000        0.00000000        0.00000000        0.00000000        0.00000000        0.00000000        0.00000000        0.00000000        0.00000000
     126         -0.000000        0.000000        0.00000000        0.00000000        0.00000000        0.00000000        0.00000000        0.00000000        0.00000000        0.00000000        0.00000000
     127         -0.000000        0.000000        0.00000000        0.00000000        0.00000000        0.00000000        0.00000000        0.00000000        0.00000000        0.00000000        0.00000000
     128         -0.000000        0.000000        0.00000000        0.00000000        0.00000000        0.00000000        0.00000000        0.00000000        0.00000000        0.00000000        0.00000000
     129         -0.000000        0.000000        0.00000000        0.00000000        0.00000000        0.00000000        0.00000000        0.00000000        0.00000000        0.00000000        0.00000000
     130         -0.000000        0.000000        0.00000000        0.00000000        0.00000000        0.00000000        0.00000000        0.00000000        0.00000000        0.00000000        0.00000000
     131         -0.000000        0.000000        0.00000000        0.00000000        0.00000000        0.00000000        0.00000000        0.00000000        0.00000000        0.00000000        0.00000000
     132         -0.000000        0.000000        0.00000000        0.00000000        0.00000000        0.00000000        0.00000000        0.00000000        0.00000000        0.00000000        0.00000000
     133         -0.000000        0.000000        0.00000000        0.00000000        0.00000000        0.00000000        0.00000000        0.00000000        0.00000000        0.00000000        0.00000000
     134         -0.000000        0.000000        0.00000000        0.00000000        0.00000000        0.00000000        0.00000000        0.00000000        0.00000000        0.00000000        0.00000000
     135         -0.000000        0.000000        0.00000000        0.00000000        0.00000000        0.00000000        0.00000000        0.00000000        0.00000000        0.00000000        0.00000000
     136         -0.000000        0.000000        0.00000000        0.00000000        0.00000000        0.00000000        0.00000000        0.00000000        0.00000000        0.00000000        0.00000000
     137         -0.000000        0.000000        0.00000000        0.00000000        0.00000000        0.00000000        0.00000000        0.00000000        0.00000000        0.00000000        0.00000000
     138         -0.000000        0.000000        0.00000000        0.00000000        0.00000000        0.00000000        0.00000000        0.00000000        0.00000000        0.00000000        0.00000000
     139         -0.000000        0.000000        0.00000000        0.00000000        0.00000000        0.00000000        0.00000000        0.00000000        0.00000000        0.00000000        0.00000000
     140         -0.000000        0.000000        0.00000000        0.00000000        0.00000000        0.00000000        0.00000000        0.00000000        0.00000000        0.00000000        0.00000000
     141         -0.000000        0.000000        0.00000000        0.00000000        0.00000000        0.00000000        0.00000000        0.00000000        0.00000000        0.00000000        0.00000000
     142         -0.000000        0.000000        0.00000000        0.00000000        0.00000000        0.00000000        0.00000000        0.00000000        0.00000000        0.00000000        0.00000000
     143         -0.000000        0.000000        0.00000000        0.00000000        0.00000000        0.00000000        0.00000000        0.00000000        0.00000000        0.00000000        0.00000000
     144         -0.000000        0.000000        0.00000000        0.00000000        0.00000000        0.00000000        0.00000000        0.00000000        0.00000000        0.00000000        0.00000000