# Projected DOS for atomic kind C at iteration step i = 0, E(Fermi) =    -0.138963 a.u.
#     MO Eigenvalue [a.u.]      Occupation                 s                py                pz                px               d-2               d-1                d0               d+1               d+2
       1         -2.017159        1.000000        0.00730508        0.00218470        0.00218540        0.00218505        0.00018829        0.00018410        0.00018836        0.00018751        0.00018552
       2         -0.884958        1.000000        0.67145212        0.05724344        0.05807761        0.05780922        0.01449638        0.01414794        0.01474013        0.01426543        0.01465396
       3         -0.867986        1.000000        0.50332855        0.14692259        0.13432470        0.13131389        0.01737225        0.01735122        0.01584984        0.01442572        0.01696377
       4         -0.865418        1.000000        0.50227693        0.10353937        0.13292068        0.17678012        0.01728143        0.00909536        0.01579761        0.02255114        0.01749264
       5         -0.864970        1.000000        0.50227341        0.16164828        0.14665349        0.10503566        0.01456079        0.02198044        0.01852889        0.01192553        0.01513025
       6         -0.831737        1.000000        0.39140305        0.18902305        0.16010682        0.16595537        0.02499619        0.02242369        0.01419299        0.02106570        0.01069836
       7         -0.831541        1.000000        0.39040897        0.13461751        0.17719709        0.20420369        0.01469651        0.02300968        0.02380050        0.00840835        0.02365710
       8         -0.830655        1.000000        0.39068916        0.21901248        0.17561167        0.12071701        0.01399291        0.00542744        0.02541084        0.02246472        0.02667047
       9         -0.828951        1.000000        0.38989699        0.14236487        0.18014856        0.19478774        0.02611925        0.01735829        0.02136161        0.01740112        0.01056063
      10         -0.828844        1.000000        0.38963069        0.17476239        0.16781867        0.17499413        0.01348849        0.02403709        0.00950690        0.02398110        0.02177785
      11         -0.795418        1.000000        0.36329295        0.18451655        0.15528803        0.19810289        0.01439012        0.02748697        0.01895794        0.01761071        0.02034959
      12         -0.793711        1.000000        0.36258743        0.16231313        0.21714033        0.15946158        0.02086287        0.01627866        0.01933103        0.01628587        0.02573689
      13         -0.792191        1.000000        0.36152330        0.19251834        0.16725269        0.18152942        0.02444773        0.01403776        0.02124816        0.02533986        0.01210140
      14         -0.761823        1.000000        0.36079856        0.22927360        0.22264107        0.09343619        0.02174539        0.01772278        0.01860007        0.01659864        0.01918123
      15         -0.761316        1.000000        0.36029360        0.21508668        0.10057876        0.23000355        0.01439399        0.02020020        0.02272018        0.01952231        0.01719920
      16         -0.760693        1.000000        0.36047431        0.11282648        0.19457478        0.23805016        0.01656957        0.01831221        0.01797759        0.01928473        0.02192982
      17         -0.759895        1.000000        0.36077821        0.16921982        0.20856727        0.16747951        0.02241317        0.01834520        0.01590649        0.02024024        0.01704963
      18         -0.716039        1.000000        0.36202395        0.21240876        0.16185985        0.17699046        0.01393876        0.02389147        0.01793233        0.01144847        0.01950523
      19         -0.715240        1.000000        0.36355284        0.15839186        0.14924330        0.24121007        0.01176416        0.01542558        0.01833140        0.02217874        0.01990124
      20         -0.715083        1.000000        0.36349639        0.19562766        0.20144844        0.15150165        0.02527388        0.02248619        0.01240500        0.01218304        0.01557742
      21         -0.714429        1.000000        0.36401509        0.14857203        0.21685637        0.18229665        0.01686865        0.01083164        0.01984547        0.02226881        0.01844519
      22         -0.714103        1.000000        0.36425710        0.20448044        0.18314731        0.15958117        0.02304945        0.01148827        0.02050678        0.02204320        0.01144613
      23         -0.697704        1.000000        0.39304627        0.18561910        0.14054907        0.16279200        0.03649083        0.00843634        0.02578260        0.02873671        0.01854701
      24         -0.697263        1.000000        0.39311431        0.17180233        0.18254934        0.13517023        0.01836720        0.02414806        0.02371443        0.02401425        0.02711902
      25         -0.696901        1.000000        0.39345127        0.14414361        0.16816960        0.17688099        0.02374493        0.02847592        0.02515893        0.01690771        0.02306664
      26         -0.696198        1.000000        0.39249764        0.14428014        0.16335469        0.18266263        0.01384474        0.03417029        0.01898739        0.02316929        0.02703274
      27         -0.646026        1.000000        0.46937002        0.11327174        0.14543744        0.11968060        0.06605844        0.01604948        0.03327530        0.02467036        0.01218577
      28         -0.644989        1.000000        0.46957162        0.15079351        0.11132890        0.11620454        0.01598416        0.01824002        0.02915016        0.05807134        0.03065561
      29         -0.644174        1.000000        0.46754171        0.11559855        0.11689893        0.14868136        0.02461472        0.04181975        0.03249148        0.02327332        0.02907978
      30         -0.641159        1.000000        0.46610179        0.14911687        0.13203061        0.10094550        0.02518981        0.01632938        0.03973777        0.02588949        0.04465844
      31         -0.640015        1.000000        0.45688906        0.13542766        0.11252908        0.14844122        0.01912846        0.05783630        0.01935588        0.01883087        0.03156036
      32         -0.637289        1.000000        0.30205670        0.19664661        0.23156811        0.21486058        0.01055402        0.01150829        0.00854026        0.01076877        0.01347540
      33         -0.634309        1.000000        0.29249436        0.20897340        0.20832900        0.23957171        0.01049208        0.01046664        0.01038503        0.01013194        0.00913472
      34         -0.634002        1.000000        0.29192926        0.21853166        0.23445112        0.20409396        0.01033055        0.00905757        0.00976345        0.01029955        0.01152317
      35         -0.595865        1.000000        0.20465564        0.25977427        0.30051639        0.20854478        0.00394364        0.00705481        0.00496932        0.00482032        0.00572041
      36         -0.594963        1.000000        0.20220974        0.28213496        0.17922596        0.31021291        0.00524971        0.00452671        0.00542420        0.00480606        0.00620951
      37         -0.593966        1.000000        0.19656051        0.22957892        0.29338127        0.25454735        0.00651376        0.00408718        0.00543176        0.00636386        0.00353519
      38         -0.560725        1.000000        0.31218312        0.17753773        0.23945906        0.20167894        0.01287835        0.01255363        0.01335200        0.01288793        0.01746906
      39         -0.559130        1.000000        0.30935998        0.24770177        0.16361634        0.21090075        0.01352369        0.01535793        0.01541946        0.01268030        0.01143929
      40         -0.557705        1.000000        0.36352568        0.15380896        0.22465960        0.17061488        0.01613922        0.02121718        0.01610922        0.01323421        0.02069095
      41         -0.557448        1.000000        0.33531107        0.24091131        0.17605576        0.16897188        0.01546878        0.01661653        0.01265780        0.01797052        0.01603612
      42         -0.556652        1.000000        0.39247732        0.18618162        0.16098184        0.16220484        0.01964713        0.02092023        0.02189087        0.01917750        0.01651834
      43         -0.556413        1.000000        0.34155665        0.18696160        0.19800497        0.19197746        0.02172319        0.00636122        0.01683019        0.02150490        0.01507974
      44         -0.555992        1.000000        0.31467747        0.16174259        0.19608262        0.25508382        0.00999427        0.02029653        0.01521562        0.01178487        0.01512196
      45         -0.552456        1.000000        0.41260390        0.16483884        0.15829054        0.15770823        0.02242954        0.01955645        0.02144112        0.02259648        0.02053486
      46         -0.538109        1.000000        0.00306829        0.31602670        0.32271188        0.32081675        0.00686628        0.00791756        0.00708037        0.00713122        0.00786651
      47         -0.497903        1.000000        0.16767855        0.24275546        0.24555289        0.24571903        0.02647284        0.01313683        0.01876617        0.02642248        0.01349569
      48         -0.496522        1.000000        0.16647473        0.24780582        0.24837932        0.24013408        0.01820650        0.01709314        0.02502946        0.01618768        0.02068913
      49         -0.495620        1.000000        0.16622527        0.24249567        0.24478113        0.24987305        0.01786190        0.02278526        0.01791775        0.01742572        0.02063421
      50         -0.495271        1.000000        0.16580364        0.24649136        0.24364180        0.24721122        0.01564826        0.02389233        0.01648639        0.01788659        0.02293812
      51         -0.473553        1.000000        0.30022410        0.20263044        0.21160701        0.20658023        0.01073272        0.02185142        0.01279780        0.01105607        0.02251990
      52         -0.472970        1.000000        0.29909227        0.21796075        0.19015505        0.21379517        0.01108043        0.02118790        0.01905567        0.01050867        0.01716398
      53         -0.470235        1.000000        0.30016972        0.20481163        0.22170694        0.19254331        0.01948382        0.01265725        0.01500356        0.01914920        0.01447408
      54         -0.469352        1.000000        0.29840941        0.19453781        0.19684376        0.23031614        0.01969949        0.01481669        0.01373217        0.01976615        0.01187821
      55         -0.468110        1.000000        0.29566730        0.23156019        0.20366904        0.18936665        0.01905999        0.00841164        0.01936195        0.01985086        0.01305122
      56         -0.460786        1.000000        0.10188649        0.24244073        0.30927855        0.28150378        0.01309224        0.01415438        0.01203009        0.01139639        0.01420135
      57         -0.457826        1.000000        0.09801848        0.25496787        0.26797940        0.31336308        0.01308774        0.01413512        0.01412201        0.01210638        0.01219457
      58         -0.457365        1.000000        0.09897483        0.32227747        0.27452927        0.23797258        0.01320568        0.01101258        0.01339797        0.01525086        0.01334708
      59         -0.435825        1.000000        0.06217510        0.27489784        0.27535991        0.28811546        0.02192812        0.01792143        0.01878720        0.02051016        0.02029795
      60         -0.435219        1.000000        0.06382046        0.28209531        0.28040059        0.27365505        0.01848642        0.02163040        0.02127317        0.02031746        0.01822815
      61         -0.433897        1.000000        0.07632633        0.27581994        0.27526972        0.27563062        0.01765063        0.01783966        0.01925691        0.01776025        0.01944994
      62         -0.433279        1.000000        0.06833189        0.27120324        0.27425150        0.28310132        0.02053932        0.02034022        0.02072544        0.02009347        0.02137432
      63         -0.412861        1.000000        0.08234816        0.36736067        0.21301540        0.23775404        0.01886988        0.01836429        0.02612032        0.01896133        0.01429469
      64         -0.412356        1.000000        0.08020543        0.26099476        0.34741797        0.21190917        0.02237959        0.01707480        0.01870574        0.01342286        0.02482613
      65         -0.412038        1.000000        0.11005140        0.22635736        0.25488709        0.30779119        0.01802678        0.02091424        0.02056128        0.01679715        0.02459461
      66         -0.411790        1.000000        0.09800639        0.25784155        0.25340473        0.29033320        0.01670923        0.01927862        0.02074492        0.02412747        0.01828178
      67         -0.411186        1.000000        0.10985911        0.26282743        0.28059888        0.24457067        0.01990881        0.02294965        0.01614188        0.02603184        0.01691895
      68         -0.410533        1.000000        0.04249398        0.15882623        0.23484973        0.46750405        0.01808402        0.01557141        0.01763373        0.01729024        0.02089738
      69         -0.410067        1.000000        0.04238991        0.37870631        0.32905096        0.15357740        0.01745624        0.02014057        0.01697033        0.01543175        0.01940300
      70         -0.393901        1.000000        0.03768411        0.21537930        0.41479017        0.28591140        0.00889977        0.01069788        0.00785112        0.00916353        0.00962177
      71         -0.393493        1.000000        0.03824189        0.38117153        0.22704925        0.30733062        0.00865048        0.00945165        0.00934585        0.00886757        0.00988749
      72         -0.392174        1.000000        0.03690585        0.31026170        0.23920158        0.36673107        0.01002033        0.00935267        0.00967826        0.00948010        0.00836808
      73         -0.391003        1.000000        0.03649199        0.40515746        0.20786622        0.30186752        0.00870512        0.00985270        0.01058217        0.00990070        0.00957597
      74         -0.390438        1.000000        0.03582283        0.22466730        0.42660641        0.26469891        0.01029522        0.00796556        0.00967450        0.00908532        0.01118320
      75         -0.379641        1.000000        0.10479068        0.25946348        0.28118962        0.27063302        0.01219644        0.01871730        0.01462810        0.01748213        0.02089901
      76         -0.379307        1.000000        0.10574500        0.22822032        0.27040458        0.31130323        0.02173828        0.01850889        0.01872804        0.01216439        0.01318717
      77         -0.378130        1.000000        0.10685184        0.31388839        0.26399286        0.23014318        0.02179327        0.01644834        0.01760222        0.01602335        0.01325573
      78         -0.377223        1.000000        0.10575424        0.25647057        0.28874358        0.26388642        0.01142331        0.01470403        0.01620725        0.02014993        0.02266040
      79         -0.372435        1.000000        0.09874453        0.28904907        0.25222210        0.27661791        0.01143016        0.01905636        0.01978023        0.01426470        0.01883475
      80         -0.371511        1.000000        0.02270968        0.30086103        0.26789564        0.30766670        0.02279990        0.02099242        0.01658024        0.02145926        0.01902670
      81         -0.370517        1.000000        0.05534360        0.29428114        0.25421460        0.30175585        0.02845118        0.01443614        0.01130169        0.02046851        0.01974665
      82         -0.370072        1.000000        0.03972655        0.31885410        0.33184266        0.21158874        0.01768744        0.02895284        0.02003461        0.01735797        0.01395470
      83         -0.369681        1.000000        0.07610964        0.29549372        0.29814279        0.24020718        0.01612103        0.01316243        0.02200852        0.02337872        0.01537502
      84         -0.368956        1.000000        0.07003433        0.20904814        0.27404184        0.35547460        0.02016171        0.01860411        0.01688766        0.02218922        0.01355789
      85         -0.367054        1.000000        0.02310142        0.20572596        0.44564031        0.22317720        0.01066777        0.02078999        0.03655503        0.02119717        0.01314418
      86         -0.366748        1.000000        0.02481114        0.37051069        0.14120816        0.36103837        0.02429560        0.01426841        0.01231162        0.01379505        0.03775857
      87         -0.351890        1.000000        0.02173047        0.32524476        0.31710981        0.27868454        0.01091587        0.01058275        0.01122091        0.01172245        0.01278818
      88         -0.351250        1.000000        0.02131188        0.32283717        0.27856418        0.32023544        0.01213786        0.01253833        0.01333112        0.00907386        0.00996980
      89         -0.349457        1.000000        0.02308160        0.28700439        0.31802489        0.31285822        0.00997727        0.01077439        0.01162480        0.01330091        0.01335314
      90         -0.348118        1.000000        0.02401309        0.29633438        0.31670506        0.30156278        0.01476394        0.01134448        0.01141806        0.01359737        0.01026035
      91         -0.322827        1.000000        0.01131843        0.32429356        0.26730256        0.27622557        0.02434199        0.02902488        0.02019124        0.01987499        0.02741802
      92         -0.320931        1.000000        0.01151332        0.23248868        0.32723946        0.30823340        0.02028293        0.02253522        0.02740175        0.02910183        0.02119764
      93         -0.320374        1.000000        0.01115346        0.29593230        0.27722498        0.29362698        0.02777311        0.02145641        0.02405281        0.02565359        0.02312509
      94         -0.316131        1.000000        0.02091893        0.31242282        0.25021913        0.28678125        0.01671476        0.04820614        0.02062810        0.02023148        0.02387633
      95         -0.315832        1.000000        0.02088150        0.26014377        0.32887516        0.25981403        0.01732916        0.02281495        0.02983009        0.01485963        0.04545159
      96         -0.313304        1.000000        0.02155072        0.25916748        0.23423119        0.35196898        0.03768808        0.02126777        0.03172751        0.02212139        0.02027674
      97         -0.312823        1.000000        0.02132184        0.31745741        0.25179650        0.27610770        0.02061244        0.01941137        0.02365099        0.04729477        0.02234658
      98         -0.312308        1.000000        0.02149454        0.27204805        0.33646961        0.23608206        0.04135377        0.01798624        0.02662567        0.02842853        0.01950857
      99         -0.305574        1.000000        0.00432215        0.25629959        0.23877000        0.38971310        0.01588310        0.03456857        0.01979851        0.01500165        0.02564310
     100         -0.304108        1.000000        0.00433472        0.23656961        0.41496046        0.23386236        0.01527339        0.02921048        0.02636415        0.01107698        0.02834757
     101         -0.303612        1.000000        0.00483379        0.45538161        0.21825516        0.20959491        0.01819138        0.02728038        0.02004980        0.02076162        0.02565116
     102         -0.301769        1.000000        0.00577582        0.20574359        0.26307563        0.41182023        0.02805965        0.02187728        0.01679341        0.02813838        0.01871483
     103         -0.301351        1.000000        0.00975993        0.31768520        0.32869410        0.22365554        0.01905907        0.02494498        0.02467171        0.02875882        0.02276809
     104         -0.300946        1.000000        0.00993129        0.31645538        0.28095509        0.27288491        0.02512386        0.02444692        0.01989549        0.02266273        0.02764121
     105         -0.299874        1.000000        0.00585560        0.33548709        0.30125832        0.24261661        0.04486058        0.01210883        0.02435941        0.02283785        0.01061447
     106         -0.299281        1.000000        0.01051406        0.35488701        0.22622882        0.28884551        0.02640225        0.01976754        0.02342382        0.01982168        0.03010137
     107         -0.298742        1.000000        0.01052768        0.16167136        0.35357543        0.35362812        0.01656732        0.01346847        0.03360224        0.03826518        0.01868306
     108         -0.245087        1.000000        0.00746549        0.29171358        0.28482073        0.27691767        0.02840782        0.03265515        0.02748764        0.02690299        0.02362208
     109         -0.244465        1.000000        0.00742567        0.23785243        0.29099990        0.32506702        0.02850971        0.03287661        0.02418685        0.03054749        0.02252980
     110         -0.243661        1.000000        0.00738490        0.28236247        0.30084998        0.26900471        0.03288827        0.03022127        0.02644538        0.02221368        0.02862832
     111         -0.243294        1.000000        0.00734326        0.37355969        0.22360749        0.25781864        0.02854660        0.02830623        0.01966607        0.03023799        0.03091353
     112         -0.242553        1.000000        0.00726195        0.19694525        0.31092417        0.34728452        0.02844616        0.01293531        0.03197957        0.03787900        0.02634150
     113         -0.239816        1.000000        0.00749991        0.33618537        0.29131957        0.23421261        0.02870278        0.03362665        0.02155375        0.01428176        0.03261211
     114         -0.238955        1.000000        0.00749687        0.26097915        0.35364842        0.24422638        0.01642117        0.02700489        0.03829139        0.03257781        0.01935266
     115         -0.236863        1.000000        0.00760229        0.37267416        0.25440693        0.23519017        0.02743500        0.03156872        0.02470182        0.01703331        0.02935703
     116         -0.235703        1.000000        0.00755063        0.22115192        0.26234770        0.37844996        0.02372490        0.01790306        0.02672604        0.03258145        0.02956348
     117         -0.199931        1.000000        0.00698008        0.29664021        0.32386622        0.24592448        0.02593053        0.02648744        0.02843496        0.02589379        0.01983567
     118         -0.197778        1.000000        0.00690289        0.23352656        0.30768683        0.32484214        0.02154774        0.02193045        0.02801288        0.03411721        0.02142948
     119         -0.196111        1.000000        0.00684074        0.32343453        0.18399064        0.35740636        0.03870674        0.01738312        0.01296499        0.02234645        0.03692119
     120         -0.193454        1.000000        0.00685910        0.38696752        0.36140892        0.11594173        0.01595626        0.04674590        0.03610527        0.01153395        0.01844191
     121         -0.192998        1.000000        0.00688999        0.21088941        0.26266885        0.38997613        0.02583202        0.01857853        0.02039217        0.03380977        0.03096207
     122         -0.138963        1.000000        0.00509746        0.24343539        0.27870793        0.29189901        0.03101849        0.04256477        0.03353971        0.03358199        0.03994527
     123         -0.133868        0.000000        0.00466700        0.25860160        0.23918851        0.31424039        0.04069847        0.03047755        0.03722461        0.03836871        0.03635469
     124         -0.133704        0.000000        0.00465857        0.29829101        0.29533265        0.21851327        0.03676379        0.03551070        0.03901865        0.03818346        0.03361632
     125         -0.098058        0.000000        0.00307492        0.26655636        0.23976734        0.33410849        0.03168193        0.03112842        0.02397309        0.03186176        0.03781193
     126         -0.097414        0.000000        0.00302693        0.31893694        0.30848074        0.21268009        0.02603787        0.04255578        0.03414487        0.02353169        0.03051640
     127         -0.092599        0.000000        0.00555934        0.24134250        0.28789901        0.30239618        0.03589175        0.02051561        0.03517446        0.03938601        0.02623114
     128         -0.089301        0.000000        0.21357813        0.06127079        0.06149694        0.06219118        0.02540198        0.02330020        0.02531722        0.02518854        0.02409708
     129         -0.061687        0.000000        0.04726742        0.24333903        0.23988481        0.23891631        0.03808595        0.05643241        0.05047589        0.03809551        0.04742958
     130         -0.059344        0.000000        0.04537730        0.24231002        0.24308751        0.23849538        0.04881020        0.04423098        0.03911565        0.04748543        0.05097743
     131         -0.056403        0.000000        0.03342073        0.23248996        0.22735371        0.29402857        0.04570609        0.03905972        0.04304489        0.04319899        0.04156929
     132         -0.055518        0.000000        0.03780089        0.23733443        0.24917171        0.25570408        0.04459541        0.04206908        0.04439267        0.05049095        0.03838638
     133         -0.053651        0.000000        0.02591623        0.19244133        0.29093616        0.28867193        0.04172484        0.03714557        0.03944509        0.04565437        0.03776901
     134         -0.052401        0.000000        0.02478590        0.30632077        0.32873655        0.14105871        0.03420320        0.05355781        0.04186953        0.03531105        0.03404341
     135         -0.051534        0.000000        0.02455927        0.35644181        0.26092753        0.15831816        0.03921088        0.05039491        0.04108754        0.03468912        0.03435553
     136         -0.050011        0.000000        0.02448583        0.22273307        0.18353130        0.36944422        0.04760508        0.02312013        0.03537006        0.04451440        0.04916094
     137         -0.004423        0.000000        0.19682067        0.05042173        0.04934401        0.04824830        0.02485262        0.02407484        0.02236807        0.02204917        0.02625455
     138         -0.003169        0.000000        0.19532478        0.04963770        0.04939520        0.05754621        0.02785682        0.01935211        0.02102137        0.02527616        0.02637423
     139         -0.003016        0.000000        0.19804304        0.04721767        0.05454742        0.03982987        0.01919454        0.02831171        0.02913634        0.02358478        0.01866113
     140         -0.002232        0.000000        0.03806776        0.22254954        0.28437223        0.25257388        0.02010005        0.03409360        0.03133460        0.03550886        0.03292187
     141         -0.000613        0.000000        0.02763426        0.29506236        0.23070001        0.27463832        0.03737315        0.03445578        0.02894479        0.02076389        0.03535552
     142         -0.000200        0.000000        0.03342362        0.25225414        0.23752895        0.28777585        0.03496997        0.02654068        0.02901779        0.03266750        0.03172251
     143          0.002804        0.000000        0.02211555        0.30243705        0.30012973        0.21645443        0.03147710        0.03833605        0.02896600        0.03524535        0.02353141
     144          0.006045        0.000000        0.02280321        0.26028503        0.26341182        0.29245762        0.03522603        0.02437307        0.03383696        0.03508285        0.02917284