# Projected DOS for atomic kind C at iteration step i = 0, E(Fermi) =    -0.039664 a.u.
#     MO Eigenvalue [a.u.]      Occupation                 s                py                pz                px               d-2               d-1                d0               d+1               d+2
       1         -1.942834        1.000000        0.00693691        0.00345329        0.00337854        0.00323950        0.00025821        0.00036890        0.00047413        0.00049284        0.00024437
       2         -0.807762        1.000000        0.70012179        0.05882021        0.04639247        0.07404416        0.01373319        0.01829032        0.01984565        0.01726275        0.01465409
       3         -0.799308        1.000000        0.51758360        0.11572240        0.14804203        0.19218322        0.02407680        0.00966111        0.01641564        0.02017892        0.02274054
       4         -0.786697        1.000000        0.51459735        0.21986918        0.10473083        0.12038088        0.02448275        0.02133922        0.01108065        0.00653322        0.02342906
       5         -0.783654        1.000000        0.51691596        0.09946115        0.21197163        0.12624460        0.00744359        0.02589570        0.02925311        0.02544400        0.00692672
       6         -0.764337        1.000000        0.41437953        0.11915431        0.25332354        0.17177953        0.02068189        0.01978443        0.01789970        0.02480210        0.01990049
       7         -0.762206        1.000000        0.41570151        0.22200632        0.19723029        0.12083451        0.01979158        0.01279556        0.02694076        0.02034916        0.01967885
       8         -0.758424        1.000000        0.40881931        0.20985133        0.14317365        0.20033520        0.02914682        0.02110731        0.01734058        0.02023023        0.01129469
       9         -0.748985        1.000000        0.40674346        0.15215590        0.17459891        0.20646982        0.02420700        0.01952939        0.01497481        0.02436792        0.01789549
      10         -0.744761        1.000000        0.40180539        0.19478315        0.12169787        0.21692561        0.00600670        0.02351194        0.01907126        0.01665954        0.03359381
      11         -0.718995        1.000000        0.38106356        0.21269431        0.19228159        0.15750274        0.01890617        0.02569603        0.01293215        0.02589074        0.02167500
      12         -0.712699        1.000000        0.37584728        0.15623987        0.24373291        0.16517093        0.02772712        0.01195180        0.01807120        0.02501420        0.02091021
      13         -0.702445        1.000000        0.37099363        0.21412560        0.11806783        0.20962958        0.01677093        0.02179691        0.03073663        0.01701329        0.01459667
      14         -0.689063        1.000000        0.37740061        0.20041833        0.18084545        0.19873690        0.02177239        0.02585710        0.01754057        0.01876145        0.01790700
      15         -0.677311        1.000000        0.37231632        0.20312076        0.12763507        0.23549036        0.01577171        0.02181711        0.02365175        0.01754403        0.02092320
      16         -0.665018        1.000000        0.36277756        0.11326950        0.24504701        0.19338568        0.02298863        0.01274438        0.02210337        0.01157778        0.02516400
      17         -0.660070        1.000000        0.36350660        0.22435571        0.19969579        0.12245795        0.02148252        0.01746616        0.01436331        0.02240389        0.01877334
      18         -0.626295        1.000000        0.37159289        0.21607793        0.15991215        0.18242074        0.01844024        0.01571605        0.02203661        0.01316025        0.02171244
      19         -0.620477        1.000000        0.36901612        0.22299226        0.11515407        0.21542519        0.01685777        0.01206756        0.02515403        0.02418988        0.01182442
      20         -0.617560        1.000000        0.36722856        0.25404689        0.16547272        0.13164357        0.01826798        0.01933205        0.01343967        0.02126257        0.01705944
      21         -0.615588        1.000000        0.36401421        0.17422733        0.20638617        0.17169797        0.01453774        0.02454189        0.00827182        0.02514752        0.01507211
      22         -0.613061        1.000000        0.36481388        0.14531794        0.23866235        0.16467906        0.02144237        0.01358551        0.02309057        0.01512597        0.01569903
      23         -0.604309        1.000000        0.39121628        0.13202815        0.16667626        0.20841625        0.02888943        0.02136071        0.01653188        0.02190596        0.02598902
      24         -0.599115        1.000000        0.39516640        0.16838490        0.15862169        0.16541708        0.01721579        0.02961731        0.02527709        0.01613842        0.03022222
      25         -0.596571        1.000000        0.39411675        0.14176063        0.21510518        0.13634932        0.02334397        0.02350720        0.02953077        0.02203482        0.01835117
      26         -0.595553        1.000000        0.39002000        0.14016298        0.15842681        0.19773777        0.02437556        0.02380135        0.02036681        0.02182870        0.02645883
      27         -0.549082        1.000000        0.46544492        0.12330880        0.11142738        0.16139426        0.04786274        0.02263635        0.04255541        0.02309051        0.01294647
      28         -0.546884        1.000000        0.45990094        0.11824547        0.11660198        0.16439965        0.03320423        0.02836818        0.04008131        0.01922812        0.02632605
      29         -0.545410        1.000000        0.46704394        0.16006270        0.11858766        0.10794481        0.01291200        0.02138898        0.01927672        0.05842111        0.03895905
      30         -0.542459        1.000000        0.42165046        0.14332546        0.16935711        0.15011496        0.01964225        0.03430452        0.02358612        0.01452395        0.03347394
      31         -0.541858        1.000000        0.43428918        0.17783160        0.09778582        0.16271960        0.02261823        0.03077097        0.03156037        0.02107962        0.02728320
      32         -0.539019        1.000000        0.32955771        0.22076727        0.21949345        0.16490472        0.01536178        0.01519875        0.01114276        0.01699022        0.01413510
      33         -0.535777        1.000000        0.32551889        0.17894722        0.22118784        0.20792920        0.01755356        0.01418991        0.00828144        0.01836491        0.01168017
      34         -0.533575        1.000000        0.31529614        0.16969725        0.25016358        0.20200664        0.01084752        0.01401710        0.00897685        0.01044139        0.02063273
      35         -0.500578        1.000000        0.21442776        0.29520766        0.27632486        0.19934344        0.00429629        0.00707825        0.00518663        0.00648851        0.00636521
      36         -0.494938        1.000000        0.20309327        0.27487982        0.15627160        0.34243403        0.00588483        0.00444523        0.00517475        0.00537403        0.00598740
      37         -0.493159        1.000000        0.19462245        0.19789609        0.34201938        0.24186366        0.00653910        0.00500123        0.00588975        0.00567835        0.00375224
      38         -0.467485        1.000000        0.32401668        0.17324472        0.22777354        0.21877802        0.01993550        0.01220828        0.01635348        0.01696500        0.01234129
      39         -0.462828        1.000000        0.32923385        0.27585328        0.10504870        0.22525252        0.00849872        0.01798966        0.02062857        0.01493220        0.01706413
      40         -0.460968        1.000000        0.36600564        0.17109621        0.16878829        0.21623714        0.02171132        0.01863468        0.02204335        0.01448007        0.01262638
      41         -0.458576        1.000000        0.31201281        0.24222637        0.22026466        0.16272266        0.01522392        0.01453221        0.01610974        0.01248385        0.01543770
      42         -0.457263        1.000000        0.38651949        0.16849100        0.17185099        0.18173803        0.01583710        0.02411068        0.01275120        0.02241994        0.02130168
      43         -0.456709        1.000000        0.35311179        0.15375674        0.20825551        0.20722654        0.01576074        0.01634193        0.01704478        0.01514582        0.02155039
      44         -0.456609        1.000000        0.32050295        0.19025766        0.21225787        0.20748884        0.01377266        0.01465480        0.01088999        0.01606708        0.01873470
      45         -0.452242        1.000000        0.38100293        0.18063986        0.17967000        0.16409023        0.02010013        0.01847853        0.02131049        0.01849882        0.01749077
      46         -0.440021        1.000000        0.01584013        0.28899203        0.36043369        0.30307908        0.00737361        0.00703475        0.00721441        0.00919244        0.00860194
      47         -0.403307        1.000000        0.17229446        0.26133877        0.26800977        0.22297218        0.01852994        0.01908366        0.02301757        0.01812428        0.01960256
      48         -0.401226        1.000000        0.17330071        0.23919157        0.24880284        0.25074550        0.02892351        0.01337654        0.01855584        0.02626821        0.01422732
      49         -0.397256        1.000000        0.17269321        0.24352303        0.24852858        0.25137723        0.01828235        0.02050257        0.01690532        0.01974217        0.02427788
      50         -0.396061        1.000000        0.16822317        0.24925092        0.23922186        0.25178990        0.01598759        0.02515775        0.01818809        0.01679988        0.02020722
      51         -0.376080        1.000000        0.29555019        0.20774565        0.18793819        0.23949891        0.01036204        0.02129040        0.01591281        0.01617196        0.01911622
      52         -0.375083        1.000000        0.29573863        0.17176145        0.25653157        0.20908483        0.02065732        0.02056083        0.01387175        0.00938802        0.01515515
      53         -0.374167        1.000000        0.28833031        0.24829817        0.20983516        0.19104516        0.02321156        0.01035837        0.01871309        0.01206285        0.01594094
      54         -0.371081        1.000000        0.29305543        0.24623979        0.17604186        0.21365584        0.00799823        0.01148191        0.01742323        0.02458601        0.01881692
      55         -0.369041        1.000000        0.28576885        0.19260277        0.20776382        0.23970644        0.01985410        0.01625221        0.01588099        0.01658086        0.01069438
      56         -0.361580        1.000000        0.11970846        0.21847201        0.32332606        0.27798940        0.01460979        0.01386026        0.01308217        0.01259915        0.01435463
      57         -0.358923        1.000000        0.10270649        0.26363198        0.30187824        0.27354711        0.01291827        0.01334699        0.01291113        0.01347904        0.01570009
      58         -0.358538        1.000000        0.10601785        0.34102734        0.25709766        0.23789183        0.01272520        0.01334901        0.01622090        0.01467724        0.01191589
      59         -0.348735        1.000000        0.07601671        0.31369904        0.29918127        0.26667594        0.01955463        0.01786873        0.01962208        0.01659540        0.01831131
      60         -0.338254        1.000000        0.06884846        0.26078441        0.26889843        0.31530061        0.02302696        0.01744988        0.01795368        0.02260601        0.02105211
      61         -0.336062        1.000000        0.06210692        0.29207914        0.27773579        0.27571444        0.02067726        0.02221278        0.02080156        0.01918194        0.01788052
      62         -0.333418        1.000000        0.07118914        0.26302144        0.29204044        0.27463282        0.01913428        0.02089150        0.02256584        0.02174022        0.02060585
      63         -0.325058        1.000000        0.04421770        0.24994989        0.17997043        0.46774605        0.02099348        0.01383587        0.01796527        0.01982653        0.02115507
      64         -0.320989        1.000000        0.04461751        0.17037433        0.51327888        0.21414053        0.01299726        0.02244176        0.02851934        0.01841103        0.01348594
      65         -0.320546        1.000000        0.04294073        0.49987901        0.17301787        0.22416375        0.02021969        0.02128790        0.01681027        0.01348107        0.02323624
      66         -0.314311        1.000000        0.10944663        0.29886817        0.26463761        0.23149854        0.02836278        0.01805381        0.02333762        0.01524168        0.01723345
      67         -0.313325        1.000000        0.10871052        0.17260943        0.31163141        0.31534787        0.01962553        0.01963361        0.02018184        0.02215299        0.02132268
      68         -0.311519        1.000000        0.10880869        0.29947315        0.20708730        0.28635323        0.01854121        0.02015555        0.01600071        0.02018873        0.02666461
      69         -0.310749        1.000000        0.10986294        0.28527464        0.29041032        0.21426043        0.01510188        0.02254116        0.02140082        0.02165414        0.02161006
      70         -0.296495        1.000000        0.04043631        0.37991826        0.35160336        0.19269099        0.01090919        0.01082100        0.00953971        0.00999290        0.01052775
      71         -0.295560        1.000000        0.04316558        0.33010460        0.35972941        0.22580463        0.01077941        0.01450628        0.00902209        0.00913185        0.01021385
      72         -0.293862        1.000000        0.04274358        0.17864614        0.18272760        0.55549466        0.00990440        0.01053296        0.01143317        0.00932565        0.01074315
      73         -0.292524        1.000000        0.04363418        0.39512542        0.22875585        0.29149714        0.00924422        0.01167725        0.01295788        0.01232338        0.01200389
      74         -0.289711        1.000000        0.03653571        0.18080382        0.47603774        0.26405778        0.01054837        0.00953289        0.01034832        0.00799758        0.01359012
      75         -0.281753        1.000000        0.05986286        0.31884428        0.31668635        0.24491639        0.01623387        0.01427969        0.02574175        0.01664223        0.01795146
      76         -0.280070        1.000000        0.07712147        0.18168019        0.34844615        0.32511294        0.02112957        0.01847879        0.01367839        0.02222516        0.01347002
      77         -0.279526        1.000000        0.08321368        0.32454857        0.27902915        0.23767846        0.01538617        0.00996843        0.02797231        0.01515238        0.01909990
      78         -0.278366        1.000000        0.07368913        0.24267315        0.36557045        0.24530009        0.02055966        0.01941773        0.01789972        0.01690645        0.01741431
      79         -0.276202        1.000000        0.07309034        0.26777349        0.24346895        0.33258558        0.01913799        0.01663195        0.01474157        0.02216512        0.02026735
      80         -0.275632        1.000000        0.07729035        0.25759199        0.31108151        0.27507581        0.01139986        0.01853927        0.01929229        0.02187420        0.01822969
      81         -0.274490        1.000000        0.04440407        0.40256552        0.22409366        0.24684119        0.01923848        0.02567320        0.01965688        0.01747952        0.01628649
      82         -0.273838        1.000000        0.05120786        0.29342783        0.29939394        0.26941536        0.02073292        0.02045678        0.01815958        0.01652018        0.01956796
      83         -0.272066        1.000000        0.05597434        0.25951204        0.22946852        0.37289745        0.02391447        0.01493111        0.01448502        0.01463932        0.02473037
      84         -0.271601        1.000000        0.04958405        0.37761878        0.20548420        0.28305953        0.01627684        0.02077210        0.02080701        0.01564630        0.02181540
      85         -0.270079        1.000000        0.08742285        0.23277977        0.25522597        0.34636179        0.02003091        0.01817585        0.01292045        0.02110841        0.01527593
      86         -0.269190        1.000000        0.09146788        0.29497278        0.28476726        0.24453255        0.01496303        0.01791021        0.01856721        0.02044098        0.01433356
      87         -0.252098        1.000000        0.02146925        0.33437939        0.26517872        0.32747235        0.01100411        0.01088353        0.01490784        0.00992256        0.01213319
      88         -0.251012        1.000000        0.02200408        0.33660038        0.31184393        0.27552009        0.01150304        0.01028865        0.01249330        0.01229369        0.01164058
      89         -0.247534        1.000000        0.02357548        0.26618867        0.33609894        0.31631384        0.01124360        0.00928014        0.01410539        0.01170581        0.01466191
      90         -0.247093        1.000000        0.02460378        0.30964230        0.30560419        0.30446692        0.01531348        0.01410985        0.00746006        0.01711347        0.00807061
      91         -0.228159        1.000000        0.01202323        0.25479830        0.23249014        0.40341827        0.02898954        0.02046343        0.01727788        0.02437087        0.03047323
      92         -0.225096        1.000000        0.01199394        0.21583749        0.38867575        0.28467569        0.01867589        0.02297986        0.03535758        0.03278997        0.01377344
      93         -0.222607        1.000000        0.01177662        0.37657050        0.27748038        0.21882535        0.02674535        0.03036236        0.02051945        0.01763715        0.02619210
      94         -0.216257        1.000000        0.02074764        0.33478815        0.26971678        0.24838681        0.01761304        0.04310041        0.02739100        0.01850946        0.02177583
      95         -0.215036        1.000000        0.02080291        0.16360413        0.38174445        0.30793137        0.01968076        0.02739630        0.02829209        0.01554507        0.03887707
      96         -0.213274        1.000000        0.02098342        0.38349359        0.16958497        0.29524248        0.03009304        0.01598342        0.03249697        0.02731439        0.02659745
      97         -0.211645        1.000000        0.02154726        0.23026612        0.22954140        0.38916119        0.03249860        0.02363955        0.01926853        0.03790226        0.01914807
      98         -0.211254        1.000000        0.02200096        0.32087902        0.34330356        0.18431055        0.03437550        0.01938908        0.02284351        0.03138034        0.02527877
      99         -0.206190        1.000000        0.00670637        0.21942416        0.26020937        0.40656294        0.01432772        0.04286700        0.01865882        0.01406666        0.02518118
     100         -0.204532        1.000000        0.00993351        0.44937885        0.27059916        0.16758908        0.01918064        0.03176659        0.02344278        0.02232132        0.02201483
     101         -0.203433        1.000000        0.00821590        0.21340792        0.41949894        0.24992518        0.02767997        0.03617807        0.01739001        0.01184936        0.02344102
     102         -0.202201        1.000000        0.01001839        0.39098675        0.15719309        0.32504774        0.03060643        0.01851348        0.02123464        0.01362196        0.03484065
     103         -0.201266        1.000000        0.00711581        0.37934094        0.24473603        0.25704135        0.02002520        0.01796749        0.02918868        0.02660844        0.02137183
     104         -0.201118        1.000000        0.00818641        0.39033305        0.27889078        0.20995121        0.04125845        0.01529425        0.02553099        0.01655826        0.01886378
     105         -0.200377        1.000000        0.01076442        0.09389127        0.39615275        0.38530316        0.01248816        0.01366358        0.03189305        0.04137876        0.02101392
     106         -0.198481        1.000000        0.00578612        0.18707501        0.26045204        0.43276784        0.01181241        0.01942315        0.01231002        0.04543691        0.02582078
     107         -0.197983        1.000000        0.00676971        0.34133179        0.33233727        0.20541857        0.03725585        0.01278777        0.03068586        0.02006308        0.01543759
     108         -0.147932        1.000000        0.00788421        0.25390209        0.28215776        0.33103283        0.02940819        0.02739624        0.02534866        0.03159003        0.02580761
     109         -0.146220        1.000000        0.00783224        0.29266417        0.26207563        0.30275396        0.02968781        0.03376296        0.03183129        0.01987248        0.02597657
     110         -0.145129        1.000000        0.00761558        0.38350487        0.23230381        0.24184390        0.03115744        0.02630202        0.02127280        0.02986933        0.03051719
     111         -0.144170        1.000000        0.00780070        0.28400076        0.25139138        0.32011280        0.03854932        0.02054054        0.01724801        0.02629537        0.03743343
     112         -0.143120        1.000000        0.00776748        0.19321705        0.38370081        0.28242427        0.01919169        0.02782350        0.03451639        0.03906177        0.01592231
     113         -0.139438        1.000000        0.00800329        0.33873096        0.27499641        0.25051405        0.03180074        0.03118286        0.01840735        0.01572754        0.03490863
     114         -0.138813        1.000000        0.00802482        0.27302406        0.33153123        0.25845104        0.02474073        0.02520748        0.02849539        0.02760963        0.02500146
     115         -0.136958        1.000000        0.00782097        0.37388523        0.31008410        0.17781193        0.01842146        0.04192437        0.04041792        0.01734493        0.01681524
     116         -0.135631        1.000000        0.00795045        0.18606848        0.26357689        0.41255766        0.02201004        0.01495862        0.02465591        0.03958016        0.03197369
     117         -0.101412        1.000000        0.00747366        0.29388158        0.33044518        0.24266576        0.02521805        0.02716701        0.02906432        0.02657621        0.01883747
     118         -0.097963        1.000000        0.00753707        0.33644284        0.23044854        0.29877177        0.03219362        0.02312335        0.01893449        0.02189309        0.03131958
     119         -0.096333        1.000000        0.00790943        0.21272501        0.28769573        0.36424205        0.02576089        0.01743613        0.02553845        0.03591914        0.02535060
     120         -0.092651        1.000000        0.00764437        0.26717251        0.22921362        0.36752440        0.03151148        0.01849282        0.01709347        0.02982220        0.03321555
     121         -0.092034        1.000000        0.00785063        0.34778880        0.35921015        0.15706908        0.01522511        0.04561359        0.03613485        0.01444072        0.01931030
     122         -0.039664        1.000000        0.00507921        0.24239573        0.28207589        0.28975059        0.03074443        0.04318651        0.03387996        0.03359225        0.03941871
     123         -0.034953        0.000000        0.00445132        0.29756979        0.24446729        0.27040030        0.03439499        0.03357433        0.03367496        0.04228219        0.03928352
     124         -0.034495        0.000000        0.00521407        0.25159543        0.29473822        0.26275621        0.04393484        0.03186310        0.04491271        0.03437189        0.02951357
     125         -0.000000        0.000000        0.00000000        0.00000000        0.00000000        0.00000000        0.00000000        0.00000000        0.00000000        0.00000000        0.00000000
     126         -0.000000        0.000000        0.00000000        0.00000000        0.00000000        0.00000000        0.00000000        0.00000000        0.00000000        0.00000000        0.00000000
     127         -0.000000        0.000000        0.00000000        0.00000000        0.00000000        0.00000000        0.00000000        0.00000000        0.00000000        0.00000000        0.00000000
     128         -0.000000        0.000000        0.00000000        0.00000000        0.00000000        0.00000000        0.00000000        0.00000000        0.00000000        0.00000000        0.00000000
     129         -0.000000        0.000000        0.00000000        0.00000000        0.00000000        0.00000000        0.00000000        0.00000000        0.00000000        0.00000000        0.00000000
     130         -0.000000        0.000000        0.00000000        0.00000000        0.00000000        0.00000000        0.00000000        0.00000000        0.00000000        0.00000000        0.00000000
     131         -0.000000        0.000000        0.00000000        0.00000000        0.00000000        0.00000000        0.00000000        0.00000000        0.00000000        0.00000000        0.00000000
     132         -0.000000        0.000000        0.00000000        0.00000000        0.00000000        0.00000000        0.00000000        0.00000000        0.00000000        0.00000000        0.00000000
     133         -0.000000        0.000000        0.00000000        0.00000000        0.00000000        0.00000000        0.00000000        0.00000000        0.00000000        0.00000000        0.00000000
     134         -0.000000        0.000000        0.00000000        0.00000000        0.00000000        0.00000000        0.00000000        0.00000000        0.00000000        0.00000000        0.00000000
     135         -0.000000        0.000000        0.00000000        0.00000000        0.00000000        0.00000000        0.00000000        0.00000000        0.00000000        0.00000000        0.00000000
     136         -0.000000        0.000000        0.00000000        0.00000000        0.00000000        0.00000000        0.00000000        0.00000000        0.00000000        0.00000000        0.00000000
     137         -0.000000        0.000000        0.00000000        0.00000000        0.00000000        0.00000000        0.00000000        0.00000000        0.00000000        0.00000000        0.00000000
     138         -0.000000        0.000000        0.00000000        0.00000000        0.00000000        0.00000000        0.00000000        0.00000000        0.00000000        0.00000000        0.00000000
     139         -0.000000        0.000000        0.00000000        0.00000000        0.00000000        0.00000000        0.00000000        0.00000000        0.00000000        0.00000000        0.00000000
     140         -0.000000        0.000000        0.00000000        0.00000000        0.00000000        0.00000000        0.00000000        0.00000000        0.00000000        0.00000000        0.00000000
     141         -0.000000        0.000000        0.00000000        0.00000000        0.00000000        0.00000000        0.00000000        0.00000000        0.00000000        0.00000000        0.00000000
     142         -0.000000        0.000000        0.00000000        0.00000000        0.00000000        0.00000000        0.00000000        0.00000000        0.00000000        0.00000000        0.00000000
     143         -0.000000        0.000000        0.00000000        0.00000000        0.00000000        0.00000000        0.00000000        0.00000000        0.00000000        0.00000000        0.00000000
     144         -0.000000        0.000000        0.00000000        0.00000000        0.00000000        0.00000000        0.00000000        0.00000000        0.00000000        0.00000000        0.00000000