# Projected DOS for atomic kind Li at iteration step i = 0, E(Fermi) =    -0.064543 a.u.
#     MO Eigenvalue [a.u.]      Occupation                 s                py                pz                px
       1         -1.923729        1.000000        0.99490406        0.00000081        0.00005496        0.00000259
       2         -0.813482        1.000000        0.07133585        0.00007306        0.00019704        0.00041109
       3         -0.802661        1.000000        0.00668520        0.00000317        0.00043972        0.00256653
       4         -0.790329        1.000000        0.00430615        0.00124960        0.00047335        0.00008512
       5         -0.784948        1.000000        0.00064926        0.00190110        0.00056360        0.00012731
       6         -0.758362        1.000000        0.00124066        0.00006311        0.00000444        0.00000950
       7         -0.757045        1.000000        0.00010841        0.00000204        0.00003747        0.00003126
       8         -0.753924        1.000000        0.00009731        0.00000000        0.00000490        0.00000029
       9         -0.750447        1.000000        0.00000316        0.00009208        0.00006125        0.00006918
      10         -0.747981        1.000000        0.00001080        0.00001721        0.00000904        0.00003681
      11         -0.720914        1.000000        0.00001795        0.00000001        0.00000475        0.00000278
      12         -0.716505        1.000000        0.00001197        0.00000099        0.00000619        0.00000908
      13         -0.715498        1.000000        0.00000443        0.00000264        0.00000002        0.00004214
      14         -0.684822        1.000000        0.00002090        0.00001443        0.00008248        0.00000065
      15         -0.683024        1.000000        0.00002765        0.00000363        0.00000331        0.00000092
      16         -0.681214        1.000000        0.00000436        0.00003238        0.00000001        0.00001310
      17         -0.680087        1.000000        0.00005847        0.00000607        0.00005949        0.00000147
      18         -0.640416        1.000000        0.00000213        0.00001643        0.00000273        0.00001065
      19         -0.639684        1.000000        0.00000131        0.00000280        0.00000701        0.00000016
      20         -0.637901        1.000000        0.00000916        0.00000184        0.00003899        0.00000090
      21         -0.636880        1.000000        0.00000426        0.00001179        0.00000083        0.00000858
      22         -0.636133        1.000000        0.00000949        0.00000528        0.00011333        0.00000017
      23         -0.620897        1.000000        0.00001073        0.00002973        0.00000569        0.00001843
      24         -0.619274        1.000000        0.00000098        0.00000024        0.00000030        0.00000529
      25         -0.618237        1.000000        0.00000434        0.00000005        0.00000234        0.00000042
      26         -0.616449        1.000000        0.00000089        0.00001110        0.00010133        0.00000646
      27         -0.569970        1.000000        0.00000365        0.00000688        0.00003588        0.00000631
      28         -0.569271        1.000000        0.00000633        0.00000003        0.00000079        0.00000487
      29         -0.567030        1.000000        0.00001058        0.00003891        0.00002450        0.00001190
      30         -0.563978        1.000000        0.00000285        0.00000002        0.00007617        0.00000768
      31         -0.561676        1.000000        0.00000036        0.00000002        0.00001105        0.00000018
      32         -0.559905        1.000000        0.00000687        0.00001368        0.00004102        0.00000000
      33         -0.557740        1.000000        0.00000081        0.00000199        0.00002257        0.00000000
      34         -0.556244        1.000000        0.00000030        0.00000001        0.00002329        0.00001551
      35         -0.520951        1.000000        0.00002971        0.00000703        0.00017774        0.00000125
      36         -0.517971        1.000000        0.00000225        0.00000113        0.00000278        0.00000001
      37         -0.515424        1.000000        0.00000089        0.00000079        0.00003724        0.00000031
      38         -0.487708        1.000000        0.00005875        0.00000180        0.00006715        0.00000070
      39         -0.485284        1.000000        0.00000980        0.00000696        0.00005735        0.00000002
      40         -0.482956        1.000000        0.00000592        0.00000015        0.00000024        0.00000156
      41         -0.480733        1.000000        0.00000151        0.00000100        0.00001989        0.00000007
      42         -0.479721        1.000000        0.00000806        0.00000181        0.00003861        0.00000000
      43         -0.477588        1.000000        0.00000256        0.00000679        0.00001515        0.00000768
      44         -0.476526        1.000000        0.00000266        0.00000056        0.00003296        0.00000001
      45         -0.475566        1.000000        0.00000392        0.00000006        0.00000000        0.00000323
      46         -0.463880        1.000000        0.00060634        0.00000558        0.00001027        0.00000011
      47         -0.425485        1.000000        0.00001192        0.00000002        0.00000871        0.00000350
      48         -0.421107        1.000000        0.00001121        0.00001421        0.00010666        0.00000644
      49         -0.419990        1.000000        0.00000231        0.00000195        0.00000988        0.00000046
      50         -0.418044        1.000000        0.00000353        0.00000977        0.00004866        0.00000010
      51         -0.398867        1.000000        0.00001307        0.00000016        0.00000547        0.00000007
      52         -0.397952        1.000000        0.00001231        0.00000185        0.00015104        0.00000006
      53         -0.396120        1.000000        0.00006317        0.00000781        0.00020234        0.00000179
      54         -0.393640        1.000000        0.00000829        0.00000128        0.00001603        0.00000259
      55         -0.390728        1.000000        0.00000012        0.00000413        0.00000411        0.00000002
      56         -0.383076        1.000000        0.00000172        0.00000867        0.00000134        0.00000171
      57         -0.381983        1.000000        0.00011687        0.00000511        0.00006543        0.00000240
      58         -0.380015        1.000000        0.00000465        0.00000040        0.00006824        0.00003916
      59         -0.365250        1.000000        0.00427663        0.00001944        0.00193149        0.00000046
      60         -0.359083        1.000000        0.00014153        0.00000929        0.00005819        0.00000041
      61         -0.358650        1.000000        0.00018558        0.00004574        0.00002963        0.00000000
      62         -0.354573        1.000000        0.00001299        0.00000791        0.00000156        0.00000171
      63         -0.338083        1.000000        0.00013165        0.00014452        0.00278887        0.00003249
      64         -0.336997        1.000000        0.00000085        0.00051388        0.00054825        0.00270665
      65         -0.336514        1.000000        0.00007157        0.00019020        0.00032462        0.00046331
      66         -0.336025        1.000000        0.00000580        0.00161684        0.00021498        0.00029062
      67         -0.334801        1.000000        0.00005974        0.00056129        0.00145238        0.00034203
      68         -0.334273        1.000000        0.00004868        0.00033293        0.00318182        0.00143117
      69         -0.332365        1.000000        0.00002030        0.00509693        0.00002074        0.00245174
      70         -0.320420        1.000000        0.00003597        0.00015249        0.00008889        0.00011023
      71         -0.318036        1.000000        0.00000574        0.00000085        0.00000521        0.00000117
      72         -0.315991        1.000000        0.00001200        0.00001001        0.00004027        0.00000243
      73         -0.313997        1.000000        0.00000059        0.00002306        0.00000124        0.00000459
      74         -0.313606        1.000000        0.00000408        0.00002820        0.00003015        0.00000185
      75         -0.305256        1.000000        0.00000809        0.00000137        0.00000517        0.00000107
      76         -0.301309        1.000000        0.00000083        0.00000021        0.00001254        0.00000012
      77         -0.300781        1.000000        0.00000095        0.00000785        0.00000011        0.00001692
      78         -0.299013        1.000000        0.00000372        0.00000106        0.00001629        0.00000004
      79         -0.297517        1.000000        0.00000033        0.00000260        0.00000833        0.00001501
      80         -0.296435        1.000000        0.00000237        0.00001597        0.00000421        0.00000538
      81         -0.295430        1.000000        0.00000487        0.00005507        0.00001167        0.00002507
      82         -0.293668        1.000000        0.00000161        0.00001572        0.00003094        0.00000000
      83         -0.293036        1.000000        0.00000283        0.00003133        0.00011224        0.00000040
      84         -0.291805        1.000000        0.00000210        0.00008468        0.00021440        0.00006617
      85         -0.290320        1.000000        0.00002133        0.00000526        0.00000758        0.00000871
      86         -0.289182        1.000000        0.00001114        0.00007456        0.00001270        0.00001088
      87         -0.275435        1.000000        0.00000189        0.00000063        0.00000137        0.00000000
      88         -0.274457        1.000000        0.00000585        0.00000270        0.00004569        0.00000023
      89         -0.271482        1.000000        0.00000276        0.00000013        0.00000000        0.00000048
      90         -0.269081        1.000000        0.00000033        0.00000770        0.00000821        0.00000003
      91         -0.248967        1.000000        0.00000432        0.00000008        0.00001451        0.00000945
      92         -0.245825        1.000000        0.00000208        0.00002404        0.00030195        0.00000119
      93         -0.245476        1.000000        0.00000275        0.00000324        0.00000096        0.00000398
      94         -0.241334        1.000000        0.00000160        0.00000628        0.00003748        0.00000000
      95         -0.239641        1.000000        0.00000022        0.00000069        0.00000991        0.00000191
      96         -0.237622        1.000000        0.00000062        0.00000057        0.00000916        0.00000005
      97         -0.235921        1.000000        0.00000125        0.00000058        0.00000759        0.00000049
      98         -0.234612        1.000000        0.00000526        0.00000098        0.00011997        0.00000320
      99         -0.229625        1.000000        0.00000102        0.00000068        0.00000016        0.00000000
     100         -0.227413        1.000000        0.00000024        0.00000067        0.00001608        0.00000309
     101         -0.225999        1.000000        0.00000086        0.00000076        0.00003217        0.00000201
     102         -0.225137        1.000000        0.00000063        0.00000636        0.00000577        0.00000288
     103         -0.224066        1.000000        0.00000011        0.00000724        0.00000009        0.00000019
     104         -0.223886        1.000000        0.00000062        0.00001480        0.00022203        0.00000097
     105         -0.222886        1.000000        0.00000167        0.00001511        0.00000225        0.00000161
     106         -0.221728        1.000000        0.00000043        0.00000542        0.00004918        0.00000445
     107         -0.219616        1.000000        0.00000687        0.00000098        0.00002487        0.00000793
     108         -0.170538        1.000000        0.00000014        0.00006389        0.00000019        0.00000471
     109         -0.169362        1.000000        0.00001003        0.00000925        0.00022402        0.00001291
     110         -0.168908        1.000000        0.00000061        0.00000232        0.00018960        0.00000062
     111         -0.168364        1.000000        0.00000145        0.00004634        0.00022708        0.00000206
     112         -0.165970        1.000000        0.00000321        0.00000207        0.00057279        0.00000095
     113         -0.163658        1.000000        0.00000357        0.00000228        0.00000090        0.00000613
     114         -0.162723        1.000000        0.00000000        0.00000749        0.00014209        0.00000536
     115         -0.159322        1.000000        0.00002412        0.00000238        0.00001031        0.00000486
     116         -0.157920        1.000000        0.00000171        0.00001489        0.00000062        0.00000591
     117         -0.124550        1.000000        0.00000191        0.00000369        0.00000078        0.00000298
     118         -0.122462        1.000000        0.00000117        0.00002120        0.00014070        0.00000348
     119         -0.120271        1.000000        0.00000583        0.00000170        0.00069527        0.00001132
     120         -0.116208        1.000000        0.00000883        0.00001118        0.00000056        0.00000109
     121         -0.115360        1.000000        0.00001641        0.00008880        0.00057566        0.00001599
     122         -0.064543        1.000000        0.00000925        0.00009106        0.00008720        0.00002380
     123         -0.059420        0.000000        0.00002178        0.00007075        0.00000097        0.00001096
     124         -0.058253        0.000000        0.00002515        0.00004772        0.00079337        0.00008244
     125         -0.000000        0.000000        0.00000000        0.00000000        0.00000000        0.00000000
     126         -0.000000        0.000000        0.00000000        0.00000000        0.00000000        0.00000000
     127         -0.000000        0.000000        0.00000000        0.00000000        0.00000000        0.00000000
     128         -0.000000        0.000000        0.00000000        0.00000000        0.00000000        0.00000000
     129         -0.000000        0.000000        0.00000000        0.00000000        0.00000000        0.00000000
     130         -0.000000        0.000000        0.00000000        0.00000000        0.00000000        0.00000000
     131         -0.000000        0.000000        0.00000000        0.00000000        0.00000000        0.00000000
     132         -0.000000        0.000000        0.00000000        0.00000000        0.00000000        0.00000000
     133         -0.000000        0.000000        0.00000000        0.00000000        0.00000000        0.00000000
     134         -0.000000        0.000000        0.00000000        0.00000000        0.00000000        0.00000000
     135         -0.000000        0.000000        0.00000000        0.00000000        0.00000000        0.00000000
     136         -0.000000        0.000000        0.00000000        0.00000000        0.00000000        0.00000000
     137         -0.000000        0.000000        0.00000000        0.00000000        0.00000000        0.00000000
     138         -0.000000        0.000000        0.00000000        0.00000000        0.00000000        0.00000000
     139         -0.000000        0.000000        0.00000000        0.00000000        0.00000000        0.00000000
     140         -0.000000        0.000000        0.00000000        0.00000000        0.00000000        0.00000000
     141         -0.000000        0.000000        0.00000000        0.00000000        0.00000000        0.00000000
     142         -0.000000        0.000000        0.00000000        0.00000000        0.00000000        0.00000000
     143         -0.000000        0.000000        0.00000000        0.00000000        0.00000000        0.00000000
     144         -0.000000        0.000000        0.00000000        0.00000000        0.00000000        0.00000000
     145         -0.000000        0.000000        0.00000000        0.00000000        0.00000000        0.00000000
     146         -0.000000        0.000000        0.00000000        0.00000000        0.00000000        0.00000000
     147         -0.000000        0.000000        0.00000000        0.00000000        0.00000000        0.00000000
     148         -0.000000        0.000000        0.00000000        0.00000000        0.00000000        0.00000000
     149         -0.000000        0.000000        0.00000000        0.00000000        0.00000000        0.00000000
     150         -0.000000        0.000000        0.00000000        0.00000000        0.00000000        0.00000000
     151         -0.000000        0.000000        0.00000000        0.00000000        0.00000000        0.00000000
     152         -0.000000        0.000000        0.00000000        0.00000000        0.00000000        0.00000000
     153         -0.000000        0.000000        0.00000000        0.00000000        0.00000000        0.00000000
     154         -0.000000        0.000000        0.00000000        0.00000000        0.00000000        0.00000000
     155         -0.000000        0.000000        0.00000000        0.00000000        0.00000000        0.00000000
     156         -0.000000        0.000000        0.00000000        0.00000000        0.00000000        0.00000000
     157         -0.000000        0.000000        0.00000000        0.00000000        0.00000000        0.00000000
     158         -0.000000        0.000000        0.00000000        0.00000000        0.00000000        0.00000000
     159         -0.000000        0.000000        0.00000000        0.00000000        0.00000000        0.00000000
     160         -0.000000        0.000000        0.00000000        0.00000000        0.00000000        0.00000000
     161         -0.000000        0.000000        0.00000000        0.00000000        0.00000000        0.00000000
     162         -0.000000        0.000000        0.00000000        0.00000000        0.00000000        0.00000000
     163         -0.000000        0.000000        0.00000000        0.00000000        0.00000000        0.00000000
     164         -0.000000        0.000000        0.00000000        0.00000000        0.00000000        0.00000000
     165         -0.000000        0.000000        0.00000000        0.00000000        0.00000000        0.00000000
     166         -0.000000        0.000000        0.00000000        0.00000000        0.00000000        0.00000000
     167         -0.000000        0.000000        0.00000000        0.00000000        0.00000000        0.00000000
     168         -0.000000        0.000000        0.00000000        0.00000000        0.00000000        0.00000000
     169         -0.000000        0.000000        0.00000000        0.00000000        0.00000000        0.00000000
     170         -0.000000        0.000000        0.00000000        0.00000000        0.00000000        0.00000000
     171         -0.000000        0.000000        0.00000000        0.00000000        0.00000000        0.00000000
     172         -0.000000        0.000000        0.00000000        0.00000000        0.00000000        0.00000000
     173          0.142431        0.000000        0.00251884        0.00000094        0.00068412        0.00000441
     174          0.161573        0.000000        0.00030202        0.00007772        0.00099993        0.00022044
     175          0.174458        0.000000        0.01838874        0.00060875        0.00054443        0.00005019
     176          0.190772        0.000000        0.00100943        0.00027087        0.00047358        0.00031462
     177          0.199336        0.000000        0.00048716        0.00000454        0.00127699        0.00033752
     178          0.208674        0.000000        0.00033834        0.00000010        0.00050001        0.00181235
     179          0.211169        0.000000        0.00125195        0.00062411        0.00054261        0.00022374
     180          0.216079        0.000000        0.00000437        0.00052305        0.00033748        0.00096222
     181          0.219274        0.000000        0.00044215        0.00094657        0.00453125        0.00002077
     182          0.222319        0.000000        0.00003609        0.00000913        0.00035701        0.00130663
     183          0.229271        0.000000        0.00106824        0.00007805        0.00107711        0.00087035
     184          0.230169        0.000000        0.00179506        0.00062942        0.00098933        0.00109553
     185          0.239107        0.000000        0.00072749        0.00011126        0.00079181        0.00044847
     186          0.241558        0.000000        0.00027610        0.00009632        0.00002227        0.00081306
     187          0.248362        0.000000        0.00126998        0.00031295        0.00143077        0.00061713
     188          0.249503        0.000000        0.00366483        0.00051892        0.00048956        0.00029746
     189          0.253845        0.000000        0.00031443        0.00020221        0.00138343        0.00577842
     190          0.257353        0.000000        0.00113796        0.00153442        0.00045250        0.00746300
     191          0.263853        0.000000        0.00115167        0.00006545        0.00022344        0.00133245
     192          0.265692        0.000000        0.00041712        0.00105112        0.00226187        0.00391084
     193          0.272897        0.000000        0.00036206        0.01137437        0.00065954        0.02696255
     194          0.275938        0.000000        0.00165406        0.01963143        0.02081877        0.00307408
     195          0.280380        0.000000        0.02131494        0.00711516        0.01117831        0.00000082
     196          0.288777        0.000000        0.00001303        0.00128226        0.01033067        0.00004089
     197          0.289605        0.000000        0.00259432        0.00230773        0.00239217        0.00063313
     198          0.291036        0.000000        0.00258518        0.01526831        0.00075917        0.00000001
     199          0.294320        0.000000        0.00071194        0.00721899        0.00011534        0.00158372
     200          0.299117        0.000000        0.00310648        0.00102356        0.00006348        0.01205476
     201          0.308883        0.000000        0.00191064        0.00513811        0.00279542        0.00035744
     202          0.311090        0.000000        0.00310450        0.00062630        0.00790003        0.00424392
     203          0.312942        0.000000        0.00031279        0.00032053        0.00072371        0.00746876
     204          0.316795        0.000000        0.00005644        0.00509154        0.00027639        0.00126408
     205          0.318434        0.000000        0.00003581        0.00314878        0.00464375        0.00005034
     206          0.327028        0.000000        0.00340806        0.00001111        0.00004114        0.00032486
     207          0.331757        0.000000        0.00042620        0.00047473        0.00393043        0.00017286
     208          0.333607        0.000000        0.00593965        0.00015543        0.00013413        0.00007114
     209          0.341689        0.000000        0.00017923        0.00005151        0.00007597        0.00036815
     210          0.347263        0.000000        0.00041342        0.00036758        0.00010542        0.00000565
     211          0.354819        0.000000        0.00182425        0.00036966        0.00028003        0.00157468
     212          0.362127        0.000000        0.00033216        0.00000464        0.00043353        0.00182632
     213          0.366055        0.000000        0.00009971        0.00081130        0.00068478        0.00044123
     214          0.366233        0.000000        0.00009143        0.00043644        0.00087711        0.00070685
     215          0.368101        0.000000        0.00082387        0.00034793        0.00021613        0.00008433
     216          0.378564        0.000000        0.00051711        0.00028507        0.00014651        0.00009896
     217          0.383234        0.000000        0.00003096        0.00057218        0.00007948        0.00195980
     218          0.387343        0.000000        0.00012621        0.00047828        0.00262412        0.00042188
     219          0.391058        0.000000        0.00021532        0.00019437        0.00007134        0.00119868
     220          0.393206        0.000000        0.00025890        0.00000469        0.00000162        0.00021049
     221          0.395994        0.000000        0.00229925        0.00006978        0.00000199        0.00026568
     222          0.399561        0.000000        0.00011816        0.00000765        0.00041366        0.00037948
     223          0.402060        0.000000        0.00011326        0.00000919        0.00003272        0.00000612
     224          0.404259        0.000000        0.00006874        0.00012529        0.00016970        0.00005516
     225          0.405526        0.000000        0.00139124        0.00001505        0.00006681        0.00009427
     226          0.409765        0.000000        0.00172308        0.00010325        0.00001253        0.00027234
     227          0.416646        0.000000        0.00037940        0.00028958        0.00011469        0.00026854
     228          0.421099        0.000000        0.00034758        0.00015645        0.00097142        0.00000920
     229          0.430124        0.000000        0.00028583        0.00031167        0.00136036        0.00052783
     230          0.433325        0.000000        0.00166574        0.00069929        0.00048228        0.00048630
     231          0.441795        0.000000        0.00034056        0.00001072        0.00000561        0.00149659
     232          0.446115        0.000000        0.00055250        0.00014584        0.00035939        0.00035112
     233          0.448968        0.000000        0.00131687        0.00360521        0.00394415        0.00032954
     234          0.458500        0.000000        0.00019140        0.00038149        0.00026470        0.00077057
     235          0.459040        0.000000        0.00122988        0.00006944        0.00001895        0.00000284
     236          0.462497        0.000000        0.00050298        0.00167139        0.00002346        0.00062806
     237          0.469519        0.000000        0.00153571        0.00035925        0.00032247        0.00002465
     238          0.471463        0.000000        0.00012573        0.00001488        0.00027838        0.00009806
     239          0.473107        0.000000        0.00106047        0.00002793        0.00008977        0.00000098
     240          0.478827        0.000000        0.00002385        0.00005948        0.00006663        0.00005221
     241          0.482836        0.000000        0.00130687        0.00027113        0.00002373        0.00080415
     242          0.486538        0.000000        0.00034733        0.00001618        0.00066389        0.00406444
     243          0.487455        0.000000        0.00226391        0.00003321        0.00000630        0.00045392
     244          0.490939        0.000000        0.00001608        0.00002115        0.00000191        0.00034737
     245          0.496399        0.000000        0.00275355        0.00045222        0.00038100        0.00050601
     246          0.497511        0.000000        0.00006855        0.00006125        0.00035414        0.00043059
     247          0.501335        0.000000        0.00003540        0.00000321        0.00051581        0.00063304
     248          0.506024        0.000000        0.00187861        0.00060123        0.00003933        0.00293387
     249          0.509747        0.000000        0.00016381        0.00020070        0.00011775        0.00003847
     250          0.511602        0.000000        0.00001585        0.00013676        0.00028695        0.00000181
     251          0.513532        0.000000        0.00127761        0.00000177        0.00000010        0.00000002
     252          0.514525        0.000000        0.00183022        0.00020322        0.00006223        0.00000007
     253          0.518848        0.000000        0.00040207        0.00004304        0.00011670        0.00008506
     254          0.520787        0.000000        0.00000293        0.00013567        0.00002454        0.00008052
     255          0.526747        0.000000        0.00077526        0.00016778        0.00000970        0.00064560
     256          0.528905        0.000000        0.00267515        0.00017852        0.00000019        0.00035967
     257          0.531671        0.000000        0.00040090        0.00000222        0.00024561        0.00174771
     258          0.535883        0.000000        0.00166777        0.00015222        0.00003034        0.00000350
     259          0.539458        0.000000        0.00077084        0.00066057        0.00015682        0.00010860