# Projected DOS for atomic kind H at iteration step i = 0, E(Fermi) =    -0.236691 a.u.
#     MO Eigenvalue [a.u.]      Occupation                 s                py                pz                px
       1         -0.784293        2.000000        0.20787724        0.05787152        0.05787117        0.05787138
       2         -0.687254        2.000000        0.18544166        0.03500029        0.03521212        0.03552943
       3         -0.687254        2.000000        0.18544302        0.03521019        0.03488041        0.03565140
       4         -0.687252        2.000000        0.18544255        0.03553185        0.03564896        0.03456115
       5         -0.590760        2.000000        0.24390114        0.02408104        0.02922718        0.02221055
       6         -0.590759        2.000000        0.24389974        0.02626531        0.02111822        0.02813506
       7         -0.514004        2.000000        0.18961346        0.01633128        0.01569732        0.01944131
       8         -0.514002        2.000000        0.18961538        0.01531712        0.02118297        0.01496952
       9         -0.514000        2.000000        0.18961231        0.01982144        0.01458936        0.01705899
      10         -0.461302        2.000000        0.28726546        0.00917455        0.00917481        0.00917475
      11         -0.397135        2.000000        0.36200901        0.00128184        0.00128180        0.00128181
      12         -0.393922        2.000000        0.26452122        0.01054878        0.01503495        0.01396740
      13         -0.393921        2.000000        0.26451396        0.01584765        0.00877116        0.01493313
      14         -0.393918        2.000000        0.26451489        0.01315487        0.01574645        0.01065036
      15         -0.354088        2.000000        0.14992548        0.01566458        0.01458844        0.01429618
      16         -0.354087        2.000000        0.14992052        0.01457302        0.01558783        0.01438904
      17         -0.354085        2.000000        0.14991704        0.01431254        0.01437305        0.01586557
      18         -0.338437        2.000000        0.25029581        0.00814038        0.00352448        0.00315178
      19         -0.338437        2.000000        0.25029665        0.00349156        0.00716245        0.00416250
      20         -0.338436        2.000000        0.25029450        0.00318454        0.00412943        0.00750245
      21         -0.281694        2.000000        0.16156787        0.01404722        0.01706291        0.00760129
      22         -0.281693        2.000000        0.16156931        0.01175989        0.00874520        0.01820617
      23         -0.278045        2.000000        0.23250809        0.01160162        0.01112037        0.00365591
      24         -0.278043        2.000000        0.23251230        0.00432660        0.01020046        0.01185060
      25         -0.278042        2.000000        0.23252038        0.01044890        0.00505637        0.01087134
      26         -0.236695        2.000000        0.22895682        0.00460545        0.00746047        0.01088760
      27         -0.236693        2.000000        0.22895623        0.01400162        0.00889811        0.00005405
      28         -0.236691        2.000000        0.22895643        0.00434652        0.00659518        0.01201248
      29          0.066396        0.000000        0.23335202        0.07004967        0.07005339        0.07004829
      30          0.107836        0.000000        0.14249699        0.08102595        0.12292972        0.11094216
      31          0.107839        0.000000        0.14249213        0.13648943        0.03529538        0.14311141
      32          0.107839        0.000000        0.14248068        0.09738025        0.15666875        0.06083744
      33          0.121426        0.000000        0.16273012        0.06556012        0.16873880        0.06520458
      34          0.121427        0.000000        0.16273211        0.16271028        0.06551555        0.07128186
      35          0.121429        0.000000        0.16272901        0.07123376        0.06525369        0.16301561
      36          0.126764        0.000000        0.04792551        0.02789977        0.13370719        0.08711141
      37          0.126766        0.000000        0.04792481        0.13790874        0.03211030        0.07869880
      38          0.138199        0.000000        0.16003316        0.12411523        0.12410179        0.12411411
      39          0.174443        0.000000        0.16829482        0.08313209        0.11961577        0.08325450
      40          0.174445        0.000000        0.16831167        0.09158831        0.08306073        0.11135116
      41          0.174446        0.000000        0.16829885        0.11127956        0.08333815        0.09138429
      42          0.189877        0.000000        0.16706806        0.11052860        0.08468685        0.11431756
      43          0.189881        0.000000        0.16706581        0.09674890        0.12408057        0.08869839
      44          0.189883        0.000000        0.16706383        0.10224814        0.10075996        0.10651992
      45          0.204240        0.000000        0.12318970        0.07694948        0.06120976        0.11439760
      46          0.204242        0.000000        0.12319364        0.06755506        0.12130888        0.06370079
      47          0.204243        0.000000        0.12319141        0.10805714        0.07003141        0.07446413
      48          0.222453        0.000000        0.21391423        0.06702710        0.06087472        0.07249457
      49          0.222456        0.000000        0.21391564        0.06657490        0.07272535        0.06109825
      50          0.236103        0.000000        0.14742371        0.05118066        0.13415735        0.05360200
      51          0.236105        0.000000        0.14741574        0.07791898        0.05083346        0.11019297
      52          0.236106        0.000000        0.14741647        0.10985071        0.05395213        0.07514769
      53          0.260852        0.000000        0.08788483        0.10429765        0.10430485        0.10430265
      54          0.287814        0.000000        0.04224731        0.00857435        0.07867357        0.08418470
      55          0.287815        0.000000        0.04224560        0.07792201        0.01025004        0.08325901
      56          0.287820        0.000000        0.04224727        0.08493535        0.08251080        0.00398824
      57          0.380836        0.000000        0.04187390        0.13383865        0.17304065        0.11000431
      58          0.380838        0.000000        0.04187368        0.17411306        0.06844533        0.17432546
      59          0.380841        0.000000        0.04187176        0.10892832        0.17540149        0.13255554
      60          0.406024        0.000000        0.22293085        0.05385030        0.16791025        0.05146603
      61          0.406026        0.000000        0.22293552        0.15389693        0.05365668        0.06567454
      62          0.406027        0.000000        0.22293533        0.06548090        0.05166076        0.15608574
      63          0.439773        0.000000        0.15986677        0.12270388        0.13459723        0.12482721
      64          0.439779        0.000000        0.15986301        0.13204875        0.12015911        0.12992498
      65          0.467350        0.000000        0.32279660        0.01962309        0.01961549        0.01962469
      66          0.542286        0.000000        0.14784112        0.06233741        0.09129355        0.06572134
      67          0.542292        0.000000        0.14783122        0.09286133        0.06333247        0.06316385
      68          0.542293        0.000000        0.14783032        0.06416260        0.06472007        0.09047390
      69          0.596931        0.000000        0.12611636        0.05135011        0.05082886        0.05158542
      70          0.597511        0.000000        0.10709843        0.08545919        0.03420812        0.20236740
      71          0.597516        0.000000        0.10709603        0.12913708        0.18090372        0.01199511
      72          0.599480        0.000000        0.30918006        0.06665637        0.01324547        0.03961379
      73          0.599481        0.000000        0.30916114        0.01465999        0.09401047        0.01085469
      74          0.599484        0.000000        0.30916153        0.03819822        0.01227045        0.06905242
      75          0.659691        0.000000        0.07615605        0.06053383        0.16862319        0.09802586
      76          0.659691        0.000000        0.07615601        0.05407844        0.12134414        0.15176228
      77          0.659694        0.000000        0.07615709        0.21257424        0.03721147        0.07739640
      78          0.719724        0.000000        0.30850702        0.06718551        0.06718960        0.06718361
      79          0.744582        0.000000        0.09823616        0.15999004        0.06043003        0.13639937
      80          0.744583        0.000000        0.09823792        0.11125371        0.12641929        0.11914555
      81          0.744585        0.000000        0.09824091        0.08557347        0.16996796        0.10127627
      82          0.796703        0.000000        0.00856769        0.05178207        0.25353018        0.08013792
      83          0.796704        0.000000        0.00856750        0.20518527        0.00343781        0.17683023
      84          0.929578        0.000000        0.25071386        0.09097392        0.09267161        0.09092056
      85          0.929580        0.000000        0.25070873        0.09277824        0.09111916        0.09067597
      86          0.929581        0.000000        0.25071005        0.09081321        0.09078158        0.09297503
      87          0.937360        0.000000        0.00000087        0.20320956        0.20321040        0.20321174
      88          0.945902        0.000000        0.44993738        0.08666775        0.08639583        0.08696580
      89          0.945904        0.000000        0.44993639        0.08637071        0.08721485        0.08644673
      90          0.945908        0.000000        0.44993627        0.08699138        0.08642008        0.08661996
      91          0.995205        0.000000        0.36043880        0.10875065        0.13861059        0.10955030
      92          0.995208        0.000000        0.36042488        0.12961195        0.09396778        0.13334073
      93          0.995210        0.000000        0.36041163        0.11855983        0.12434358        0.11402821
      94          0.999918        0.000000        0.71673026        0.02274193        0.02274104        0.02274120
      95          1.051479        0.000000        0.43195218        0.11311269        0.07848703        0.11156669
      96          1.051479        0.000000        0.43196469        0.07357217        0.11521043        0.11437447
      97          1.051481        0.000000        0.43194848        0.11648092        0.10946870        0.07721901
      98          1.118204        0.000000        0.05335560        0.16318485        0.19668719        0.19588476
      99          1.118205        0.000000        0.05335410        0.19672279        0.16228153        0.19675467
     100          1.118210        0.000000        0.05335379        0.19585064        0.19679301        0.16311437
     101          1.130857        0.000000        0.50204595        0.03521402        0.05622928        0.03716360
     102          1.130861        0.000000        0.50202853        0.05627246        0.01534559        0.05700266
     103          1.130867        0.000000        0.50202488        0.03712394        0.05703700        0.03446132
     104          1.150731        0.000000        0.51445764        0.09186930        0.09761385        0.05998227
     105          1.150733        0.000000        0.51445304        0.07444177        0.06869668        0.10633021
     106          1.261086        0.000000        0.24161321        0.09154499        0.09154548        0.09155317
     107          1.277862        0.000000        0.03824814        0.15871094        0.31593641        0.21465345
     108          1.277868        0.000000        0.03824995        0.29721414        0.12620501        0.26587564
     109          1.277869        0.000000        0.03824840        0.23336807        0.24716097        0.20876640
     110          1.347887        0.000000        0.13539902        0.17307654        0.12737442        0.15799346
     111          1.347888        0.000000        0.13539762        0.13255493        0.17825970        0.14763279
     112          1.366082        0.000000        0.17949061        0.12462744        0.22785181        0.19407139
     113          1.366086        0.000000        0.17948416        0.22596640        0.08997546        0.23061213
     114          1.366088        0.000000        0.17948323        0.19597020        0.22870690        0.12186909
     115          1.467701        0.000000        0.00527594        0.13286243        0.18340646        0.12267846
     116          1.467702        0.000000        0.00527601        0.17601852        0.08285058        0.18007612
     117          1.467704        0.000000        0.00527608        0.13005723        0.17267177        0.13621060
     118          1.489342        0.000000        0.15676588        0.09037833        0.11647902        0.09506539
     119          1.489345        0.000000        0.15676669        0.10484212        0.09345267        0.10362660
     120          1.489348        0.000000        0.15676495        0.10670164        0.09200399        0.10320433
     121          1.594173        0.000000        0.16602779        0.10814478        0.12891386        0.11810597
     122          1.594181        0.000000        0.16603886        0.15668676        0.08287452        0.11558909
     123          1.594185        0.000000        0.16604128        0.09032937        0.14337148        0.12146900
     124          1.599453        0.000000        0.04100020        0.10626133        0.19440248        0.08648751
     125          1.599457        0.000000        0.04100282        0.15182855        0.06370515        0.17161612
     126          1.637921        0.000000        0.04919973        0.11753719        0.11751553        0.11752022
     127          1.670462        0.000000        0.01848252        0.08399908        0.11575691        0.10787716
     128          1.670464        0.000000        0.01848224        0.10441612        0.05613858        0.14707508
     129          1.670465        0.000000        0.01848313        0.11921554        0.13573832        0.05267700
     130          1.774355        0.000000        0.10305322        0.18847766        0.11410980        0.03940804
     131          1.774355        0.000000        0.10305221        0.05262244        0.07934062        0.21002906
     132          1.774362        0.000000        0.10305477        0.10089834        0.14854299        0.09255855
     133          1.792629        0.000000        0.06695673        0.05689878        0.07382350        0.02762837
     134          1.792631        0.000000        0.06695004        0.05000073        0.03260543        0.07573532
     135          1.792637        0.000000        0.06695084        0.05144322        0.05191618        0.05497662
     136          1.808145        0.000000        0.01773947        0.04124076        0.26633468        0.13142933
     137          1.808146        0.000000        0.01773992        0.25142844        0.02633615        0.16124325
     138          1.908739        0.000000        0.09142206        0.03008444        0.20424878        0.07445653
     139          1.908741        0.000000        0.09142617        0.24856050        0.02941898        0.03081085
     140          1.908744        0.000000        0.09142694        0.03014938        0.07511642        0.20352193
     141          1.945418        0.000000        0.16226691        0.11047081        0.12255906        0.09449310
     142          1.945420        0.000000        0.16226892        0.08698345        0.09601781        0.14452068
     143          1.945425        0.000000        0.16226574        0.13006247        0.10895867        0.08850124
     144          1.961021        0.000000        0.07741817        0.01449400        0.03380207        0.06011937
     145          1.961024        0.000000        0.07741691        0.05778543        0.03847360        0.01215628
     146          1.970902        0.000000        0.07274579        0.07267574        0.10246276        0.06053929
     147          1.970908        0.000000        0.07274538        0.05042736        0.08828257        0.09697137
     148          1.970910        0.000000        0.07274250        0.11256663        0.04494064        0.07816914
     149          1.976238        0.000000        0.09819172        0.06785964        0.06786563        0.06786327
     150          2.020381        0.000000        0.01434996        0.11406796        0.11790001        0.07724421
     151          2.020384        0.000000        0.01435103        0.11736322        0.11523319        0.07661300
     152          2.020392        0.000000        0.01434759        0.07778278        0.07606888        0.15535376
     153          2.057892        0.000000        0.00974526        0.04047076        0.08317106        0.04828848
     154          2.057895        0.000000        0.00974528        0.04890972        0.08446160        0.03856131
     155          2.057898        0.000000        0.00974355        0.08255645        0.00429603        0.08507717
     156          2.068838        0.000000        0.00000001        0.13012228        0.13012255        0.13012229
     157          2.095359        0.000000        0.17160251        0.02499818        0.02647293        0.02669892
     158          2.095364        0.000000        0.17160072        0.02999531        0.02437420        0.02379716
     159          2.095368        0.000000        0.17160210        0.02316757        0.02732241        0.02767461
     160          2.128363        0.000000        0.05656073        0.09457475        0.09457601        0.09457498
     161          2.180197        0.000000        0.08315747        0.08525157        0.04387274        0.05020158
     162          2.180208        0.000000        0.08315722        0.02966316        0.08680470        0.06285693
     163          2.180213        0.000000        0.08314584        0.06442440        0.04864961        0.06627293
     164          2.274072        0.000000        0.07125589        0.01743475        0.04457927        0.02822959
     165          2.274074        0.000000        0.07125657        0.04272590        0.01558333        0.03193328
     166          2.310546        0.000000        0.09762277        0.05902381        0.03188715        0.03677070
     167          2.310552        0.000000        0.09762009        0.01222877        0.07966177        0.03580121
     168          2.310563        0.000000        0.09764276        0.05640727        0.01611600        0.05508475
     169          2.320573        0.000000        0.04147348        0.08981971        0.07451412        0.04906750
     170          2.320575        0.000000        0.04147875        0.10122968        0.03876243        0.07339066
     171          2.320578        0.000000        0.04147204        0.02230243        0.10014040        0.09098893
     172          2.327445        0.000000        0.06295577        0.13690394        0.07585459        0.07538781
     173          2.327448        0.000000        0.06295372        0.07593083        0.11530337        0.09691156
     174          2.327455        0.000000        0.06295306        0.07535588        0.09697755        0.11581124
     175          2.430151        0.000000        0.02775490        0.04127674        0.04121492        0.04120978
     176          2.432222        0.000000        0.01506647        0.00165970        0.12355497        0.09935321
     177          2.432224        0.000000        0.01506668        0.14800926        0.02617458        0.05038124
     178          2.523981        0.000000        0.00551124        0.07067235        0.07100917        0.09515979
     179          2.523983        0.000000        0.00551130        0.08722298        0.08688395        0.06273532
     180          2.540282        0.000000        0.08171882        0.10982355        0.04862656        0.03360605
     181          2.540283        0.000000        0.08171818        0.03857716        0.08627615        0.06719986
     182          2.540291        0.000000        0.08171902        0.04365799        0.05715059        0.09124996
     183          2.587693        0.000000        0.00895108        0.06292314        0.03225080        0.03176900
     184          2.587696        0.000000        0.00895103        0.03998707        0.04594462        0.04100908
     185          2.587700        0.000000        0.00895036        0.02403119        0.04874588        0.05416491
     186          2.641490        0.000000        0.07886060        0.01157548        0.04753628        0.06078053
     187          2.641492        0.000000        0.07886142        0.01148212        0.06063320        0.04777780
     188          2.641497        0.000000        0.07886051        0.09683255        0.01172313        0.01133494
     189          2.809971        0.000000        0.43974536        0.04579592        0.04579570        0.04579554
     190          2.976455        0.000000        0.13796220        0.03196296        0.06705390        0.04978891
     191          2.976457        0.000000        0.13796234        0.06724132        0.03214970        0.04941418
     192          3.154992        0.000000        0.33305747        0.07446649        0.05562707        0.06255083
     193          3.154994        0.000000        0.33305663        0.05363714        0.07025417        0.06875290
     194          3.155002        0.000000        0.33305899        0.06454176        0.06676290        0.06133973
     195          3.225277        0.000000        0.44457624        0.05335377        0.07747081        0.06435398
     196          3.225284        0.000000        0.44457666        0.07427161        0.04647934        0.07442830
     197          3.225288        0.000000        0.44457554        0.06755746        0.07122653        0.05639595
     198          3.699803        0.000000        0.00000002        0.00188097        0.00095867        0.00097735
     199          3.699809        0.000000        0.00000002        0.00114648        0.00156498        0.00110554
     200          3.699819        0.000000        0.00000002        0.00078957        0.00129334        0.00173406
     201          8.014867        0.000000        0.26461736        0.01358527        0.01358249        0.01358346
     202          8.369966        0.000000        0.09682075        0.00610189        0.00374952        0.00608817
     203          8.370021        0.000000        0.09682130        0.00609528        0.00608894        0.00375613
     204          8.370146        0.000000        0.09682261        0.00374486        0.00610086        0.00609594
     205          8.431751        0.000000        0.04135365        0.00049861        0.00203763        0.00155648
     206          8.431914        0.000000        0.04135406        0.00222851        0.00069189        0.00117237
     207          8.635117        0.000000        0.01504558        0.00057122        0.00208073        0.00082013
     208          8.635157        0.000000        0.01504504        0.00062137        0.00080263        0.00204754
     209          8.635220        0.000000        0.01504314        0.00227716        0.00058891        0.00060377
     210          8.751159        0.000000        0.00974469        0.00028334        0.00028357        0.00028349
