# Projected DOS for atomic kind C at iteration step i = 0, E(Fermi) =    -0.236691 a.u.
#     MO Eigenvalue [a.u.]      Occupation                 s                py                pz                px               d-2               d-1                d0               d+1               d+2
       1         -0.784293        2.000000        0.36423670        0.07994585        0.07994544        0.07994655        0.00296346        0.00296349        0.00277179        0.00296357        0.00277181
       2         -0.687254        2.000000        0.33407032        0.12942538        0.10021889        0.06335398        0.02539279        0.02753079        0.00263969        0.02362212        0.00256252
       3         -0.687254        2.000000        0.33406869        0.10172023        0.15628464        0.03499410        0.02182369        0.02943557        0.00376286        0.02528825        0.00143693
       4         -0.687252        2.000000        0.33406896        0.06185259        0.03649516        0.19465136        0.02932262        0.01958497        0.00139408        0.02763785        0.00380791
       5         -0.590760        2.000000        0.33360407        0.07142851        0.18987278        0.02838770        0.02479464        0.00370780        0.01413984        0.00932931        0.00531544
       6         -0.590759        2.000000        0.33360425        0.12169739        0.00325475        0.16473823        0.00042752        0.02151567        0.00531246        0.01589401        0.01413739
       7         -0.514004        2.000000        0.23925484        0.16993922        0.18251551        0.13643226        0.00621846        0.01534724        0.00030919        0.00834783        0.00055209
       8         -0.514002        2.000000        0.23925518        0.18532933        0.11161210        0.19194288        0.02000507        0.00438687        0.00075309        0.00552030        0.00011020
       9         -0.514000        2.000000        0.23925206        0.13361865        0.19476361        0.16050859        0.00368694        0.01018102        0.00022836        0.01604593        0.00063272
      10         -0.461302        2.000000        0.05826457        0.19276186        0.19275752        0.19275697        0.00714889        0.00714729        0.01361313        0.00714765        0.01361255
      11         -0.397135        2.000000        0.18561796        0.10310138        0.10310556        0.10310384        0.03830311        0.03830726        0.01214833        0.03830601        0.01215210
      12         -0.393922        2.000000        0.03455084        0.27861647        0.14444979        0.17970986        0.00419532        0.00469789        0.01490599        0.00599688        0.02880460
      13         -0.393921        2.000000        0.03454823        0.11995803        0.33539949        0.14742996        0.00679370        0.00423018        0.03840906        0.00386118        0.00530427
      14         -0.393918        2.000000        0.03454899        0.20421315        0.12292658        0.27564616        0.00390426        0.00595660        0.01225510        0.00502888        0.03145371
      15         -0.354088        2.000000        0.00000000        0.42631639        0.20362042        0.14324289        0.00320522        0.00156958        0.01131100        0.00924240        0.00701740
      16         -0.354087        2.000000        0.00000000        0.19520272        0.40703592        0.17094565        0.00869912        0.00237066        0.00326933        0.00294752        0.01505865
      17         -0.354085        2.000000        0.00000000        0.15164439        0.16254515        0.45899720        0.00211315        0.01007543        0.01291357        0.00182772        0.00541520
      18         -0.338437        2.000000        0.05796387        0.27695139        0.16731564        0.15836552        0.02872048        0.03040049        0.00220240        0.00788506        0.00508269
      19         -0.338437        2.000000        0.05796366        0.16632665        0.25399933        0.18230482        0.01232738        0.02582996        0.00584430        0.02885340        0.00143733
      20         -0.338436        2.000000        0.05796387        0.15938396        0.18129500        0.26195495        0.02595418        0.01078154        0.00287403        0.03027105        0.00441050
      21         -0.281694        2.000000        0.02824384        0.28583418        0.41397972        0.01184518        0.01681415        0.00048151        0.02056541        0.01161084        0.01034589
      22         -0.281693        2.000000        0.02824281        0.18860550        0.06046018        0.46259324        0.00245899        0.01879070        0.01034410        0.00766180        0.02056210
      23         -0.278045        2.000000        0.00000000        0.32133086        0.30417522        0.03763889        0.01854828        0.02098033        0.01374661        0.01839057        0.00630323
      24         -0.278043        2.000000        0.00000000        0.06121116        0.27144853        0.33048068        0.01886989        0.01836308        0.01231962        0.02068525        0.00773184
      25         -0.278042        2.000000        0.00000001        0.28058215        0.08752947        0.29502069        0.02050107        0.01857908        0.00400603        0.01884420        0.01604032
      26         -0.236695        2.000000        0.00855357        0.13096813        0.20240936        0.28767115        0.03543480        0.04908865        0.00417916        0.02549490        0.00428991
      27         -0.236693        2.000000        0.00855315        0.36512137        0.23805828        0.01786916        0.04156028        0.00685758        0.00458175        0.06159192        0.00389650
      28         -0.236691        2.000000        0.00855318        0.12496249        0.18057585        0.31550928        0.03301063        0.05407785        0.00394002        0.02293115        0.00452893
      29          0.066396        0.000000        0.39515873        0.02743425        0.02743376        0.02743292        0.02579721        0.02580303        0.00081523        0.02580213        0.00081938
      30          0.107836        0.000000        0.10239362        0.10153457        0.05978826        0.07089393        0.03721021        0.04900258        0.01746945        0.07939068        0.02492188
      31          0.107839        0.000000        0.10241129        0.04751562        0.14457990        0.04010925        0.12461098        0.01702585        0.03551482        0.02394810        0.00689586
      32          0.107839        0.000000        0.10246906        0.08314604        0.02783062        0.12118574        0.00376868        0.09958007        0.01060350        0.06226306        0.03178612
      33          0.121426        0.000000        0.17507688        0.02615257        0.26768366        0.02535176        0.03636922        0.00254107        0.00193250        0.00264675        0.00001199
      34          0.121427        0.000000        0.17504944        0.25425991        0.02602879        0.03891922        0.00262614        0.00428543        0.00048933        0.03465287        0.00144907
      35          0.121429        0.000000        0.17508137        0.03877793        0.02547657        0.25492729        0.00256189        0.03473891        0.00048617        0.00426520        0.00145260
      36          0.126764        0.000000        0.29648715        0.00726552        0.13070372        0.07635486        0.06635047        0.03876558        0.05883277        0.00369082        0.02490523
      37          0.126766        0.000000        0.29648652        0.13561907        0.01217405        0.06652970        0.00618967        0.03377783        0.02489576        0.06885323        0.05883152
      38          0.138199        0.000000        0.05098942        0.04863778        0.04864644        0.04863883        0.05682543        0.05681892        0.05013439        0.05681800        0.05012650
      39          0.174443        0.000000        0.31988442        0.01973065        0.07919961        0.01998027        0.03930667        0.03176547        0.00403595        0.03175990        0.00003987
      40          0.174445        0.000000        0.31988404        0.03303571        0.01963993        0.06622527        0.03173650        0.03722500        0.00102295        0.03386956        0.00304916
      41          0.174446        0.000000        0.31988572        0.06613600        0.02006762        0.03270296        0.03177378        0.03385593        0.00104607        0.03720233        0.00302874
      42          0.189877        0.000000        0.00000001        0.10051120        0.14330615        0.08997056        0.07318559        0.03916084        0.02467349        0.04378886        0.00880223
      43          0.189881        0.000000        0.00000000        0.12192070        0.07428800        0.13758183        0.02808723        0.06869479        0.00776269        0.05937203        0.02569905
      44          0.189883        0.000000        0.00000001        0.11138486        0.11618609        0.10621930        0.05485867        0.04828497        0.01776150        0.05299833        0.01571443
      45          0.204240        0.000000        0.03389254        0.11342212        0.09264123        0.16666909        0.04313128        0.07361947        0.01201772        0.05286651        0.03599350
      46          0.204242        0.000000        0.03388543        0.10144830        0.17516739        0.09611149        0.07829740        0.04455122        0.04342459        0.04675684        0.00459898
      47          0.204243        0.000000        0.03389109        0.15784189        0.10492811        0.10995983        0.04818500        0.05145020        0.01657895        0.06998097        0.03143987
      48          0.222453        0.000000        0.02168902        0.12443464        0.24246201        0.01950751        0.09311269        0.00749289        0.02477726        0.04779379        0.00441958
      49          0.222456        0.000000        0.02169079        0.13316642        0.01514181        0.23809387        0.00581889        0.09145135        0.00440488        0.05114529        0.02477257
      50          0.236103        0.000000        0.00583916        0.10690268        0.14007260        0.10800592        0.16616085        0.02466152        0.03967163        0.02058345        0.00173847
      51          0.236105        0.000000        0.00583725        0.11653437        0.10681325        0.13163426        0.01991851        0.12255012        0.01066345        0.06896524        0.03072239
      52          0.236106        0.000000        0.00583867        0.13153553        0.10810140        0.11534533        0.02532135        0.06422270        0.01174373        0.12187908        0.02964520
      53          0.260852        0.000000        0.35495769        0.03610365        0.03610338        0.03610219        0.01765529        0.01765009        0.04149584        0.01765398        0.04148791
      54          0.287814        0.000000        0.00000000        0.29356868        0.12974877        0.11647554        0.06098439        0.06217458        0.05272698        0.04712201        0.02351913
      55          0.287815        0.000000        0.00000000        0.13130249        0.28855877        0.11993291        0.04769897        0.06170575        0.00648578        0.06089302        0.06974564
      56          0.287820        0.000000        0.00000000        0.11492232        0.12148658        0.30337851        0.06159734        0.04641423        0.05514532        0.06227274        0.02110130
      57          0.380836        0.000000        0.00000000        0.08585314        0.10949041        0.07250686        0.05701157        0.08591510        0.04031221        0.07553627        0.01461693
      58          0.380838        0.000000        0.00000000        0.11006951        0.04752471        0.11025675        0.10546368        0.05642404        0.00090245        0.05657371        0.05402760
      59          0.380841        0.000000        0.00000000        0.07192866        0.11083456        0.08508744        0.05597405        0.07613239        0.04116936        0.08635656        0.01375987
      60          0.406024        0.000000        0.00486844        0.06134229        0.18195145        0.05881793        0.05748414        0.05681022        0.02534956        0.05681663        0.00040192
      61          0.406026        0.000000        0.00486697        0.16725183        0.06112698        0.07372749        0.05683921        0.05718707        0.00679120        0.05709039        0.01895519
      62          0.406027        0.000000        0.00486729        0.07351544        0.05903294        0.16955897        0.05677927        0.05712365        0.00647045        0.05721334        0.01927593
      63          0.439773        0.000000        0.00472897        0.01417078        0.07775157        0.02551973        0.09897092        0.03249848        0.10310335        0.01805266        0.08320843
      64          0.439779        0.000000        0.00472832        0.06411793        0.00055272        0.05276812        0.00072189        0.06718434        0.08320084        0.08163387        0.10309612
      65          0.467350        0.000000        0.06156343        0.08932913        0.08932018        0.08933578        0.08057112        0.08057707        0.02353657        0.08057421        0.02353264
      66          0.542286        0.000000        0.09555412        0.12590928        0.21523898        0.13662082        0.00852030        0.00272848        0.04144661        0.00187575        0.00491224
      67          0.542292        0.000000        0.09555518        0.22001357        0.12906106        0.12869882        0.00212946        0.00213105        0.01329496        0.00886691        0.03306013
      68          0.542293        0.000000        0.09555330        0.13185749        0.13346601        0.21245345        0.00248221        0.00826381        0.01479514        0.00238212        0.03155958
      69          0.596931        0.000000        0.17473393        0.15114664        0.15038358        0.15149197        0.00936214        0.00936247        0.03193515        0.00936204        0.03234134
      70          0.597511        0.000000        0.02955169        0.12476517        0.04267075        0.31211768        0.00046361        0.00335152        0.02281281        0.00133785        0.03379578
      71          0.597516        0.000000        0.02955268        0.19479926        0.27764815        0.00710539        0.00297884        0.00007693        0.03400417        0.00209418        0.02260847
      72          0.599480        0.000000        0.00990726        0.24199670        0.10247257        0.17232570        0.01193992        0.01236629        0.00187416        0.01336233        0.00505938
      73          0.599481        0.000000        0.00990905        0.10625221        0.31428063        0.09626921        0.01384484        0.01186533        0.00670437        0.01195628        0.00023178
      74          0.599484        0.000000        0.00990849        0.16855003        0.10005768        0.24820403        0.01187936        0.01343614        0.00182075        0.01234953        0.00511137
      75          0.659691        0.000000        0.02042384        0.03447568        0.08521329        0.05220112        0.05341430        0.02883076        0.21555319        0.01413649        0.09241239
      76          0.659691        0.000000        0.02042362        0.03143820        0.06311216        0.07733791        0.03703595        0.04762378        0.16760086        0.01173680        0.14034986
      77          0.659694        0.000000        0.02042393        0.10597444        0.02356092        0.04235302        0.00598144        0.01991535        0.07880377        0.07051140        0.22913654
      78          0.719724        0.000000        0.32328292        0.04587646        0.04588107        0.04587545        0.00273873        0.00273719        0.01040307        0.00273774        0.01040163
      79          0.744582        0.000000        0.00000002        0.08382953        0.06989430        0.08051481        0.00819779        0.01519849        0.06120307        0.01737817        0.20872821
      80          0.744583        0.000000        0.00000000        0.07645510        0.07894210        0.07884271        0.01433767        0.01342184        0.14465286        0.01300664        0.12528459
      81          0.744585        0.000000        0.00000000        0.07395356        0.08540555        0.07488004        0.01826717        0.01211808        0.19907844        0.01037066        0.07086788
      82          0.796703        0.000000        0.00540018        0.00254698        0.01294372        0.00400781        0.00438194        0.00135683        0.57192689        0.00088232        0.00253547
      83          0.796704        0.000000        0.00540004        0.01045371        0.00005511        0.00899085        0.00011909        0.00304378        0.00253651        0.00354287        0.57183723
      84          0.929578        0.000000        0.25061028        0.04287832        0.10083062        0.03696420        0.01198941        0.00456666        0.01869953        0.00527602        0.00290500
      85          0.929580        0.000000        0.25060755        0.10520440        0.04190004        0.03357098        0.00513063        0.00420214        0.00722171        0.01249803        0.01438243
      86          0.929581        0.000000        0.25060980        0.03259193        0.03794259        0.11014093        0.00471397        0.01306283        0.00648507        0.00405731        0.01511569
      87          0.937360        0.000000        0.00000087        0.00000019        0.00000033        0.00000009        0.00003347        0.00000002        0.19517737        0.00000837        0.19514672
      88          0.945902        0.000000        0.00000000        0.03245339        0.03213944        0.03188938        0.02053535        0.04354310        0.07013957        0.03200977        0.02732323
      89          0.945904        0.000000        0.00000000        0.03206017        0.03219973        0.03222092        0.05374912        0.02291800        0.00828880        0.01942658        0.08916800
      90          0.945908        0.000000        0.00000000        0.03196715        0.03214190        0.03237205        0.02181164        0.02962676        0.06776439        0.04465342        0.02969500
      91          0.995205        0.000000        0.00541276        0.04616983        0.02073691        0.04869901        0.05441347        0.04570808        0.00372782        0.04678077        0.01100101
      92          0.995208        0.000000        0.00541160        0.02933177        0.06067683        0.02560049        0.04223420        0.05292355        0.01187311        0.05174852        0.00285460
      93          0.995210        0.000000        0.00541152        0.04010715        0.03419649        0.04130652        0.05024491        0.04828121        0.00648290        0.04837914        0.00824690
      94          0.999918        0.000000        0.07858884        0.04480795        0.04480817        0.04480675        0.00067764        0.00067765        0.00000040        0.00067763        0.00000053
      95          1.051479        0.000000        0.04600165        0.03580661        0.04233872        0.03612775        0.02300215        0.00844451        0.05488532        0.00778300        0.01049170
      96          1.051479        0.000000        0.04600034        0.04330172        0.03551042        0.03546008        0.00680774        0.00728456        0.01867508        0.02514306        0.04669523
      97          1.051481        0.000000        0.04600155        0.03516619        0.03642285        0.04268463        0.00943014        0.02350119        0.02450537        0.00630606        0.04086491
      98          1.118204        0.000000        0.00000000        0.14057514        0.04576471        0.05053149        0.00740429        0.00799587        0.08758545        0.02119111        0.02983955
      99          1.118205        0.000000        0.00000000        0.04549872        0.14532571        0.04604707        0.02180847        0.00742288        0.00094174        0.00736916        0.11647316
     100          1.118210        0.000000        0.00000000        0.05080350        0.04579336        0.14027771        0.00739554        0.02116219        0.08761167        0.00802989        0.02981433
     101          1.130857        0.000000        0.01101112        0.12365525        0.08263138        0.11706683        0.00088762        0.00917543        0.00391971        0.01023487        0.01076492
     102          1.130861        0.000000        0.01101158        0.08245337        0.15977794        0.08112586        0.01888899        0.00054450        0.01441114        0.00086091        0.00027646
     103          1.130867        0.000000        0.01101269        0.11724363        0.08093419        0.12517862        0.00052072        0.01057841        0.00369993        0.00920127        0.01098340
     104          1.150731        0.000000        0.00657563        0.03450040        0.04066873        0.00025551        0.03763630        0.00023641        0.05615981        0.03192775        0.02811640
     105          1.150733        0.000000        0.00657539        0.01578265        0.00961373        0.05002778        0.00890563        0.04629867        0.02811352        0.01460801        0.05615289
     106          1.261086        0.000000        0.08280756        0.11657615        0.11657549        0.11657777        0.01073912        0.01074060        0.00949368        0.01073930        0.00949346
     107          1.277862        0.000000        0.00000000        0.06760221        0.07778454        0.07030945        0.01886419        0.01328366        0.01115994        0.00964106        0.00380602
     108          1.277868        0.000000        0.00000000        0.07637865        0.06502439        0.07429907        0.00792238        0.01602584        0.00309164        0.01784294        0.01187034
     109          1.277869        0.000000        0.00000000        0.07171264        0.07289271        0.07109756        0.01500077        0.01248152        0.00819356        0.01430659        0.00677080
     110          1.347887        0.000000        0.01988470        0.07252057        0.00222719        0.04933026        0.00220470        0.04830233        0.00397286        0.07100954        0.13670444
     111          1.347888        0.000000        0.01988512        0.01019902        0.08049186        0.03338602        0.07880319        0.03269151        0.13672349        0.00999210        0.00398264
     112          1.366082        0.000000        0.01212887        0.07705410        0.01172368        0.03196967        0.01268076        0.01708452        0.02271105        0.02577069        0.06283541
     113          1.366086        0.000000        0.01213019        0.01284114        0.09798368        0.00992034        0.03027066        0.01233197        0.08338694        0.01292760        0.00216933
     114          1.366088        0.000000        0.01212947        0.03085338        0.01103650        0.07885666        0.01259204        0.02611592        0.02223041        0.01683872        0.06331748
     115          1.467701        0.000000        0.00000000        0.04939627        0.09048683        0.04325400        0.10008379        0.05220213        0.11936446        0.06082751        0.04016173
     116          1.467702        0.000000        0.00000000        0.08469239        0.01090410        0.08754486        0.02129433        0.09756438        0.01189150        0.09428634        0.14760088
     117          1.467704        0.000000        0.00000000        0.04904773        0.08174205        0.05235323        0.09174774        0.06335942        0.10801574        0.05800883        0.05150957
     118          1.489342        0.000000        0.01443234        0.03616866        0.22066009        0.06631107        0.08481899        0.02050354        0.07995621        0.00866405        0.00979643
     119          1.489345        0.000000        0.01443451        0.14275833        0.05610609        0.12427969        0.01656162        0.04394066        0.02883071        0.05349757        0.06090274
     120          1.489348        0.000000        0.01442723        0.14421840        0.04638019        0.13254856        0.01262257        0.04954884        0.02583066        0.05184035        0.06390829
     121          1.594173        0.000000        0.06308016        0.05881290        0.04545940        0.05010014        0.06421166        0.07802067        0.01204158        0.09144247        0.01563862
     122          1.594181        0.000000        0.06306538        0.02824836        0.07239280        0.05373161        0.12411601        0.08164571        0.02001020        0.02792448        0.00767620
     123          1.594185        0.000000        0.06306483        0.06731564        0.03651876        0.05053979        0.04533767        0.07402838        0.00945057        0.11431711        0.01821612
     124          1.599453        0.000000        0.03449921        0.06547638        0.19798006        0.03574431        0.01132096        0.00204098        0.13095663        0.00374377        0.09008617
     125          1.599457        0.000000        0.03450020        0.13398709        0.00149048        0.16372352        0.00010818        0.00935106        0.09009830        0.00765541        0.13093312
     126          1.637921        0.000000        0.11098241        0.02477247        0.02476425        0.02476618        0.13740793        0.13743390        0.00032417        0.13743097        0.00034506
     127          1.670462        0.000000        0.00000000        0.02359224        0.02499937        0.02474576        0.15251329        0.14773499        0.09394483        0.13690406        0.06944979
     128          1.670464        0.000000        0.00000000        0.02451076        0.02268977        0.02613865        0.12001165        0.17033516        0.03917001        0.14682449        0.12420750
     129          1.670465        0.000000        0.00000000        0.02523332        0.02565199        0.02245500        0.16460291        0.11910215        0.11195750        0.15343825        0.05144489
     130          1.774355        0.000000        0.01834007        0.05854145        0.03456819        0.01047501        0.14016690        0.20646542        0.00608136        0.07422213        0.00609074
     131          1.774355        0.000000        0.01833981        0.01465148        0.02328447        0.06564928        0.17114819        0.05480052        0.00471637        0.19488891        0.00747664
     132          1.774362        0.000000        0.01834011        0.03039330        0.04572598        0.02746165        0.10949000        0.15961000        0.00744814        0.15173681        0.00473936
     133          1.792629        0.000000        0.06396741        0.09728040        0.10144769        0.08672293        0.02877985        0.25660359        0.00800715        0.11234932        0.01953427
     134          1.792631        0.000000        0.06396470        0.09408217        0.08880201        0.10257811        0.23204548        0.01937404        0.01928161        0.14626386        0.00831649
     135          1.792637        0.000000        0.06396147        0.09409404        0.09521353        0.09615276        0.13685951        0.12176361        0.01403028        0.13911428        0.01352366
     136          1.808145        0.000000        0.24180356        0.00079365        0.00773916        0.00357660        0.11226998        0.05188812        0.06058409        0.01151518        0.05308544
     137          1.808146        0.000000        0.24180212        0.00728015        0.00033360        0.00449619        0.00485079        0.06523308        0.05307883        0.10560107        0.06057642
     138          1.908739        0.000000        0.00337852        0.09092435        0.12145190        0.09845548        0.05029534        0.08335963        0.04880326        0.09418319        0.00893654
     139          1.908741        0.000000        0.00337829        0.12895309        0.09078241        0.09109209        0.09437416        0.09394259        0.01446084        0.03952044        0.04327957
     140          1.908744        0.000000        0.00337776        0.09095556        0.09859234        0.12128250        0.08315297        0.05054188        0.02333301        0.09413917        0.03441015
     141          1.945418        0.000000        0.00000001        0.04555709        0.04351546        0.04687330        0.07411530        0.13835670        0.03501513        0.10249267        0.02428446
     142          1.945420        0.000000        0.00000000        0.04791684        0.04687751        0.04115470        0.13508191        0.02416878        0.02453891        0.15571244        0.03475805
     143          1.945425        0.000000        0.00000002        0.04247579        0.04556199        0.04791359        0.10573805        0.15245728        0.02938003        0.05676189        0.02992325
     144          1.961021        0.000000        0.00616085        0.01291313        0.06482178        0.13557763        0.14907380        0.31181173        0.04763756        0.02970468        0.05646524